# vtk DataFile Version 2.0
distance
ASCII
DATASET POLYDATA
POINTS       1100 float
   3118078.00       2812470.00      -7475.73096    
   3120820.00       2855176.00      -8015.09521    
   3119089.00       2826700.00      -7639.90283    
   3120050.00       2840932.00      -7812.08105    
   3113700.00       2811256.00      -7682.52881    
   3111575.00       2790300.00      -7774.27197    
   3106664.00       2788979.00      -7738.90576    
   3103760.00       2770020.00      -7541.09912    
   3098727.00       2767509.00      -7491.60400    
   3096372.00       2754030.00      -7251.57910    
   3090795.00       2751741.00      -7336.80518    
   3088084.00       2738961.00      -7094.10010    
   3083764.00       2737088.00      -7231.33496    
   3080648.00       2724767.00      -7035.32324    
   3076601.00       2722778.00      -7228.54199    
   3073280.00       2707307.00      -7259.23193    
   3068972.00       2706888.00      -7459.94385    
   3058874.00       2680812.00      -8015.77002    
   3063923.00       2693850.00      -7737.85693    
   3046585.00       2678133.00      -8301.48535    
   3043382.00       2666113.00      -8580.54980    
   3038366.00       2663484.00      -8684.82520    
   3036596.00       2657553.00      -8814.58203    
   3015127.00       2635174.00      -9186.28223    
   3023302.00       2648868.00      -9010.89258    
   3009728.00       2633671.00      -9204.16895    
   3008006.00       2628245.00      -9222.61133    
   2991199.00       2613645.00      -9007.27734    
   2997862.00       2622545.00      -9146.46680    
   2963528.00       2591234.00      -8150.92188    
   2974647.00       2605803.00      -8830.48047    
   2935027.00       2574483.00      -7493.29785    
   2949899.00       2581459.00      -7728.27588    
   2933628.00       2569848.00      -7302.98682    
   2912764.00       2566060.00      -7233.86377    
   2911956.00       2561014.00      -6974.18311    
   2904391.00       2559622.00      -6829.91211    
   2901993.00       2554410.00      -6493.86719    
   2876037.00       2551122.00      -6243.44482    
   2889015.00       2552766.00      -6368.65576    
   2875132.00       2546848.00      -6000.35693    
   2857541.00       2539727.00      -5667.78516    
   2824200.00       2536776.00      -5718.72607    
   2840871.00       2538252.00      -5693.25586    
   2822988.00       2532394.00      -5310.25781    
   2794070.00       2530228.00      -5114.45410    
   2808545.00       2531089.00      -5235.97510    
   2792454.00       2525236.00      -4727.20215    
   2700918.00       2524226.00      -4456.26416    
   2777145.00       2523963.00      -4936.45703    
   2761860.00       2524654.00      -5368.54785    
   2746548.00       2525286.00      -5649.25391    
   2731191.00       2524813.00      -5634.16895    
   2716023.00       2522709.00      -5116.74121    
   2693165.00       2532207.00      -4395.62109    
   2690743.00       2558994.00      -9178.13770    
   2692644.00       2545763.00      -6239.91309    
   2686016.00       2558857.00      -9256.81152    
   2683080.00       2595463.00      -30440.4395    
   2685082.00       2572566.00      -13382.9902    
   2683942.00       2584480.00      -21191.8809    
   2677457.00       2594565.00      -33033.2695    
   2674119.00       2720710.00      -262328.094    
   2677293.00       2604558.00      -44819.4883    
   2674290.00       2612131.00      -57970.6719    
   2675030.00       2620577.00      -70503.4375    
   2674420.00       2628210.00      -83940.6172    
   2674239.00       2635463.00      -97600.5781    
   2673922.00       2642274.00      -111486.602    
   2674182.00       2649164.00      -125331.602    
   2674419.00       2655952.00      -139227.094    
   2674395.00       2662590.00      -153200.094    
   2674773.00       2669536.00      -167010.297    
   2674834.00       2676467.00      -180806.000    
   2674270.00       2683215.00      -194700.594    
   2674325.00       2690374.00      -208414.500    
   2674266.00       2697664.00      -222058.797    
   2674631.00       2705355.00      -235473.094    
   2674440.00       2712990.00      -248925.703    
   2853107.00       2978686.00      -260541.094    
   2847285.00       2964606.00      -262440.594    
   2843415.00       2949774.00      -261710.297    
   2838760.00       2935263.00      -262731.594    
   2835885.00       2920268.00      -261482.906    
   2832182.00       2905451.00      -262079.906    
   2829237.00       2890403.00      -262077.406    
   2827795.00       2875178.00      -260639.906    
   2827852.00       2859841.00      -260740.406    
   2829209.00       2844637.00      -262312.500    
   2831439.00       2829501.00      -263124.312    
   2831587.00       2814245.00      -262902.406    
   2827662.00       2799521.00      -262415.406    
   2820318.00       2786217.00      -263034.594    
   2811614.00       2773927.00      -262476.812    
   2800589.00       2763345.00      -263426.688    
   2789564.00       2752811.00      -261921.703    
   2776618.00       2744679.00      -262099.406    
   2762886.00       2737866.00      -262184.406    
   2748667.00       2732326.00      -261959.797    
   2733821.00       2728449.00      -262258.094    
   2718739.00       2727095.00      -264358.500    
   2703401.00       2726645.00      -265064.906    
   2688332.00       2725478.00      -264893.500    
   3111561.00       2978820.00      -8124.14600    
   3096925.00       2981935.00      -8917.90723    
   3081646.00       2981631.00      -9940.08008    
   3066453.00       2981633.00      -11891.0400    
   3051479.00       2981793.00      -15098.4902    
   3036764.00       2981816.00      -19175.7695    
   3023460.00       2981771.00      -26562.0801    
   3010973.00       2981889.00      -35408.8711    
   3000438.00       2981862.00      -46527.8516    
   2990525.00       2981868.00      -58170.4883    
   2981347.00       2981913.00      -70433.6719    
   2972960.00       2981946.00      -83245.0312    
   2964991.00       2981909.00      -96323.7109    
   2957148.00       2981843.00      -109480.398    
   2949208.00       2981686.00      -122400.203    
   2941030.00       2982178.00      -135274.594    
   2932462.00       2981855.00      -147965.000    
   2923754.00       2981538.00      -160555.906    
   2915088.00       2981521.00      -173178.594    
   2906422.00       2981595.00      -185805.000    
   2897556.00       2981027.00      -198282.297    
   2888645.00       2980327.00      -210720.000    
   2879956.00       2980714.00      -223312.297    
   2871163.00       2980310.00      -235847.000    
   2862135.00       2979498.00      -248194.094    
   3112822.00       2967189.00      -8424.77539    
   3117942.00       2965840.00      -8070.39795    
   3125564.00       2855964.00      -7775.08496    
   3126434.00       2871855.00      -7684.76123    
   3127289.00       2887745.00      -7520.22314    
   3127134.00       2903645.00      -7655.03906    
   3126300.00       2919532.00      -7872.89990    
   3122483.00       2934646.00      -8143.07422    
   3120121.00       2950082.00      -8201.50684    
   3063433.00       2719129.00      -7847.92383    
   3047722.00       2718095.00      -9151.29688    
   3053844.00       2706066.00      -8609.91699    
   3051402.00       2692025.00      -8102.02686    
   2879906.00       2562156.00      -7030.42578    
   2867757.00       2564867.00      -7235.25195    
   2854578.00       2569729.00      -9221.31836    
   2858400.00       2554680.00      -7034.95215    
   3068913.00       2736549.00      -8337.86719    
   3053132.00       2727418.00      -8453.79492    
   3042781.00       2731361.00      -10407.8604    
   3032579.00       2737372.00      -12058.3896    
   3034275.00       2723261.00      -10773.1104    
   3037855.00       2711423.00      -9980.65430    
   3040309.00       2700497.00      -9041.44434    
   3039830.00       2688978.00      -8538.56055    
   3036262.00       2677542.00      -8424.34082    
   3030336.00       2669267.00      -9101.18164    
   3108219.00       2824142.00      -7716.31787    
   3098488.00       2815697.00      -8343.91992    
   3101933.00       2802725.00      -7553.23877    
   2840822.00       2551912.00      -7447.53076    
   2821766.00       2550813.00      -7639.98389    
   2801995.00       2554033.00      -8958.54688    
   2810073.00       2542285.00      -6281.80811    
   3114743.00       2868194.00      -8002.37988    
   3102153.00       2864410.00      -9251.57617    
   3107872.00       2851848.00      -8618.45801    
   3107976.00       2836927.00      -8910.08496    
   3023542.00       2661480.00      -9029.41504    
   3013207.00       2658709.00      -9485.66113    
   3010137.00       2648438.00      -9031.66504    
   3002648.00       2641257.00      -9398.49512    
   2994903.00       2634424.00      -9155.33203    
   2985390.00       2628562.00      -9446.36426    
   2975357.00       2622596.00      -9992.75195    
   2962445.00       2620397.00      -10298.1104    
   2956895.00       2607675.00      -9519.28711    
   2947947.00       2597129.00      -8959.36816    
   2938068.00       2588621.00      -7899.81982    
   2924720.00       2590590.00      -9016.62207    
   2918941.00       2579302.00      -7892.97607    
   3042433.00       2744682.00      -10810.7002    
   3035731.00       2753916.00      -12703.1396    
   3025648.00       2757434.00      -15052.3604    
   3023166.00       2742102.00      -14037.2500    
   3022687.00       2727474.00      -12330.4805    
   3023392.00       2715174.00      -12518.2900    
   3025994.00       2705119.00      -10760.4502    
   3028111.00       2694615.00      -9660.07910    
   3028354.00       2684794.00      -9581.47266    
   3022934.00       2675678.00      -8918.93848    
   3014301.00       2671597.00      -10730.7100    
[...]
CELL_DATA  2061
SCALARS slip float 1
LOOKUP_TABLE default
   0.00000000    
   0.00000000    
   0.00000000    
   8.90770648E-03
   0.00000000    
   0.00000000    
   0.00000000    
   0.00000000    
   0.00000000    
   1.32281277E-02
   0.00000000    
   6.69647753E-02
   1.18415589E-02
   0.00000000    
   0.00000000    
  0.181851774    
   3.33857685E-02
  0.599084258    
  0.345742613    
  0.110013068    
  0.347317845    
   1.25073977E-02
  0.134087905    
   0.00000000    
   2.12011170E-02
   0.00000000    
   0.00000000    
   0.00000000    
   0.00000000    
   0.00000000    
   0.00000000    
   0.00000000    
   0.00000000    
   0.00000000    
   0.00000000    
   0.00000000    
   0.00000000    
   0.00000000    
   0.00000000    
   0.00000000    
   0.00000000    
   0.00000000    
   0.00000000    
   0.00000000    
   0.00000000    
   0.00000000    
   0.00000000    
   0.00000000    
   0.00000000    
   0.00000000    
   0.00000000    
   0.00000000    
   0.00000000    
   0.00000000    
   0.00000000    
   0.00000000    
   0.00000000    
   0.00000000    
   0.00000000    
   0.00000000    
   0.00000000    
   0.00000000    
   0.00000000    
   0.00000000    
   0.00000000    
   0.00000000    
   0.00000000    
   0.00000000    
   0.00000000    
   0.00000000    
   0.00000000    
   0.00000000    
   0.00000000    
   0.00000000    
   0.00000000    
   0.00000000    
   0.00000000    
  0.407848179    
  0.221616879    
  0.754818618    
  0.605863333    
   1.11912978    
  0.965696394    
  0.801747739    
  0.997684658    
  0.614452720    
  0.784095228    
  0.275623232    
  0.576175570    
  0.100693040    
  0.250251770    
   1.49497734E-02
   7.72887394E-02
   3.63937370E-03
   3.65878940E-02
   2.53653377E-02
   0.00000000    
  0.135292158    
   2.89824903E-02
   6.03509694E-02
  0.144175321    
   5.59228566E-03
   7.73702264E-02
   3.25795375E-02
   0.00000000    
  0.113593251    
   7.17120664E-03
  0.164751276    
   4.81381640E-02
  0.164861530    
   8.06909502E-02
   2.47471817E-02
  0.114514895    
   3.12870857E-03
   3.47852148E-02
   0.00000000    
   5.35439653E-03
  0.105816439    
   0.00000000    
  0.298679531    
  0.151003614    
   5.51765598E-02
   3.72411236E-02
   0.00000000    
   0.00000000    
   0.00000000    
   0.00000000    
   0.00000000    
   0.00000000    
   0.00000000    
   0.00000000    
   0.00000000    
   0.00000000    
   0.00000000    
   0.00000000    
   5.47337485E-03
   0.00000000    
   0.00000000    
   0.00000000    
   0.00000000    
   0.00000000    
   0.00000000    
   0.00000000    
   0.00000000    
   0.00000000    
   0.00000000    
   0.00000000    
   0.00000000    
   0.00000000    
   0.00000000    
   0.00000000    
   0.00000000    
   0.00000000    
   0.00000000    
   0.00000000    
   5.77755738E-03
   3.28663620E-03
   0.00000000    
   7.86266197E-03
   0.00000000    
   0.00000000    
   6.85547292E-03
   0.00000000    
   0.00000000    
   0.00000000    
   0.00000000    
   0.00000000    
   0.00000000    
   0.00000000    
   0.00000000    
   0.00000000    
   0.00000000    
   0.00000000    
   0.00000000    
   0.00000000    
   0.00000000    
   0.00000000    
   0.00000000    
   0.00000000    
   0.00000000    
   0.00000000    
   0.00000000    
   0.00000000    
   0.00000000    
   0.00000000    
   0.00000000    
   0.00000000    
   0.00000000    
   0.00000000    
   6.76756958E-03
   0.00000000    
   0.00000000    
   5.19545330E-03
   0.00000000    
   0.00000000    
   0.00000000    
   0.00000000    
   0.00000000    
   0.00000000    
   0.00000000    
   0.00000000    
   0.00000000    
   0.00000000    
   0.00000000    
   0.00000000    
   0.00000000    
   0.00000000    
   0.00000000    
   0.00000000    
   0.00000000    
   0.00000000    
   0.00000000    
   0.00000000    
   0.00000000    
   0.00000000    
   0.00000000    
   0.00000000    
   0.00000000    
   0.00000000    
   0.00000000    
   0.00000000    
   0.00000000    
   0.00000000    
   3.00825667E-02
   0.00000000    
   4.58305962E-02
   3.04673258E-02
   5.13025671E-02
   4.04673629E-02
   5.19344062E-02
   4.31472622E-02
   4.76052947E-02
   4.04863469E-02
   3.61939520E-02
   2.96760071E-02
   0.00000000    
   0.00000000    
   0.00000000    
   0.00000000    
   0.00000000    
   0.00000000    
   0.00000000    
   0.00000000    
   0.00000000    
   0.00000000    
   0.00000000    
   0.00000000    
   0.00000000    
   0.00000000    
   0.00000000    
   0.00000000    
   0.00000000    
   0.00000000    
   0.00000000    
   0.00000000    
   0.00000000    
   0.00000000    
   0.00000000    
   0.00000000    
   0.00000000    
   0.00000000    
   0.00000000    
   0.00000000    
   0.00000000    
   0.00000000    
   0.00000000    
   0.00000000    
   0.00000000    
   0.00000000    
   0.00000000    
   0.00000000    
   0.00000000    
   0.00000000    
   0.00000000    
   0.00000000    
   0.00000000    
   0.00000000    
   0.00000000    
   0.00000000    
   0.00000000    
   0.00000000    
   0.00000000    
   0.00000000    
   0.00000000    
   0.00000000    
   0.00000000    
   0.00000000    
   0.00000000    
   0.00000000    
   0.00000000    
   0.00000000    
   0.00000000    
   0.00000000    
   0.00000000    
   0.00000000    
   0.00000000    
   0.00000000    
   0.00000000    
   0.00000000    
   2.54262369E-02
   4.23794985E-03
   4.05858532E-02
   7.83712417E-03
   2.53145508E-02
   1.64722577E-02
   2.21471600E-02
   6.52383175E-03
   0.00000000    
   0.00000000    
   0.00000000    
   0.00000000    
   0.00000000    
   0.00000000    
   4.44471724E-02
   5.15836067E-02
  0.105011217    
   3.86036374E-02
  0.309056848    
  0.142020777    
  0.211355850    
  0.363575369    
   7.67854601E-03
   7.25982860E-02
   1.52665116E-02
   5.67415804E-02
   6.54376671E-02
   7.86701068E-02
  0.121168293    
  0.188360989    
   5.63507853E-03
   1.19444774E-02
   0.00000000    
   0.00000000    
   4.52288799E-02
   1.30278552E-02
   2.74665859E-02
   5.95252262E-03
   2.29619890E-02
   0.00000000    
   4.12217807E-03
   0.00000000    
   3.75234261E-02
   7.13489503E-02
   1.92410201E-02
   4.70376536E-02
   7.44382367E-02
   1.61973592E-02
   8.54900703E-02
   4.32192869E-02
   7.52927139E-02
   4.54617068E-02
   0.00000000    
   7.69385230E-03
   0.00000000    
   0.00000000    
   8.87365267E-03
   1.41049502E-02
   1.66214425E-02
   4.28020321E-02
   1.87693704E-02
   6.24384731E-02
   1.18824625E-02
   7.46851638E-02
   5.20028966E-03
   5.94054721E-02
   1.22876223E-02
   1.73596740E-02
   1.98647249E-02
   6.19896986E-02
   2.61678845E-02
   0.00000000    
   4.47614677E-02
   1.64134558E-02
  0.139481783    
   3.49718519E-02
  0.120359845    
   9.81328413E-02
   1.94169988E-03
   3.17824036E-02
   0.00000000    
   6.45994628E-03
   7.11360341E-03
   5.33591909E-03
   3.16891656E-03
   6.34969305E-03
   3.04109640E-02
   2.99577368E-03
   3.57784182E-02
   0.00000000    
   2.01402586E-02
   2.36118236E-03
   2.17484478E-02
   0.00000000    
   8.82489886E-03
   8.73922370E-03
   4.92810048E-02
   6.43847743E-04
  0.149124846    
  0.119432151    
   2.99776513E-02
   5.44974953E-03
   2.38607451E-02
   5.62007427E-02
   0.00000000    
   7.05055473E-03
   0.00000000    
   2.23465692E-02
   1.22401454E-02
   2.83883382E-02
   0.00000000    
   1.76877584E-02
   0.00000000    
   0.00000000    
   0.00000000    
   0.00000000    
   1.20489495E-02
   8.18395894E-03
   0.00000000    
   1.30883977E-02
   0.00000000    
   0.00000000    
   0.00000000    
   0.00000000    
   0.00000000    
   0.00000000    
   4.15606946E-02
   0.00000000    
   4.01409827E-02
   9.84682329E-03
   2.25130301E-02
   0.00000000    
   3.51573974E-02
   0.00000000    
   3.74012105E-02
   1.14972191E-02
   5.44785485E-02
   0.00000000    
   5.01024909E-02
   1.27303656E-02
   2.85157636E-02
   1.99036356E-02
   1.00594107E-02
   0.00000000    
   2.51778010E-02
   8.23904481E-03
   4.01900709E-02
   7.07612978E-03
   2.36251000E-02
   7.80964410E-03
   1.62454303E-02
   1.33259259E-02
   8.47343635E-03
   0.00000000    
   4.96372394E-02
   1.56321321E-02
   8.56480375E-02
   4.89595532E-02
  0.109929152    
   8.21294561E-02
  0.124790564    
   7.55183026E-02
  0.120202467    
   9.50325429E-02
  0.120189063    
   7.47966096E-02
   8.69253278E-02
   7.89120644E-02
   7.46467188E-02
   4.34274226E-02
   3.53240967E-02
   2.93687414E-02
   1.45602049E-02
   7.25015579E-03
   0.00000000    
   0.00000000    
   1.24859614E-02
   0.00000000    
   2.71987766E-02
   1.80194937E-02
   5.03463820E-02
   5.72078750E-02
  0.179182470    
  0.152114466    
  0.153223515    
  0.120143637    
  0.129712254    
  0.122864261    
  0.149167046    
   9.92978960E-02
  0.118235104    
   8.30621868E-02
   1.57036949E-02
   1.96486153E-02
   7.02463165E-02
   1.90933850E-02
  0.163688257    
   6.18390143E-02
  0.134290993    
  0.194205999    
  0.130944371    
  0.197136834    
  0.167879626    
  0.204737589    
  0.151170820    
  0.216218904    
  0.233379900    
  0.160579950    
  0.208535373    
  0.189009666    
  0.245619223    
  0.147215217    
   4.57718372E-02
   8.05621967E-02
   7.52071291E-02
   1.50829162E-02
  0.311848909    
  0.133980617    
  0.172400102    
  0.155477121    
  0.260776788    
  0.299492866    
  0.240147591    
  0.301401824    
  0.222316131    
  0.323195249    
  0.404175490    
  0.233144045    
  0.467689544    
  0.348429203    
  0.510029793    
  0.415330261    
  0.529273272    
  0.417254537    
  0.278634489    
  0.470331103    
  0.143054351    
  0.265551269    
  0.132434517    
  0.211026356    
  0.351273328    
  0.205861121    
  0.500197470    
  0.397962004    
  0.591804028    
  0.602962017    
  0.328752339    
  0.346881300    
  0.162740573    
  0.201343536    
   1.40914936E-02
   2.83088032E-02
  0.431029886    
  0.279857785    
   1.22373927    
   1.10218537    
   1.43236864    
   1.32258141    
   1.33099127    
   1.28716886    
   1.13491857    
   1.29200351    
  0.939501822    
   1.10994232    
  0.740977585    
  0.909170687    
  0.375951022    
  0.632050455    
  0.195173204    
  0.283592641    
   7.36104026E-02
   3.94909829E-02
  0.182858676    
  0.129042700    
  0.326795399    
  0.288789928    
  0.302733779    
  0.382061750    
  0.304548860    
  0.416390836    
  0.220657796    
  0.343076736    
  0.322542310    
  0.227936685    
  0.242424205    
  0.334747970    
  0.103392445    
  0.272932380    
   5.97527362E-02
  0.128103793    
  0.298883766    
  0.143894002    
  0.614301443    
  0.468631744    
  0.133247837    
  0.396528780    
  0.443531781    
  0.202648640    
  0.726900935    
  0.480318844    
  0.575914502    
  0.747807264    
  0.546922922    
  0.708941340    
  0.165672883    
  0.246825069    
  0.243716165    
  0.279037416    
  0.347649336    
  0.424588412    
  0.453093052    
  0.482876480    
  0.160732135    
  0.312728465    
   8.54193568E-02
   7.28765950E-02
  0.165591359    
  0.190949783    
  0.193132326    
  0.245679259    
  0.238837630    
  0.322585762    
  0.208098128    
  0.285736293    
  0.205707356    
  0.302237898    
  0.277451724    
  0.384327352    
  0.495479286    
  0.569343209    
  0.923869014    
  0.911558330    
  0.502319813    
  0.755756676    
  0.239429101    
  0.426066130    
  0.362919569    
  0.221439496    
  0.396832377    
  0.270856023    
  0.409516096    
  0.271553516    
  0.218239054    
  0.311657339    
   5.49652949E-02
  0.136296496    
   1.50129674E-02
   3.50069515E-02
   2.35825721E-02
   1.66080799E-02
  0.118384734    
   3.93570922E-02
  0.245490193    
  0.101415515    
  0.287121147    
  0.205451041    
  0.228668317    
  0.163641244    
  0.100156657    
   9.32288021E-02
  0.132009178    
  0.119007260    
  0.104829863    
  0.135862082    
   4.19833325E-02
   6.49991781E-02
  0.160566226    
  0.228635773    
  0.116315626    
  0.202779517    
   3.05645857E-02
  0.123805128    
   3.31248529E-02
   6.84051439E-02
   5.93564846E-02
   9.07484293E-02
   4.85935323E-02
   9.85362381E-02
   5.86600900E-02
   3.50331925E-02
  0.165886819    
   5.14207147E-02
  0.215978757    
  0.121866219    
  0.264464766    
  0.148434713    
  0.269205183    
  0.219891191    
  0.246538267    
  0.177010208    
  0.282703906    
  0.191616163    
  0.292530745    
  0.196571499    
  0.296083003    
  0.220404178    
  0.219659820    
  0.192226261    
  0.136036292    
  0.100588866    
  0.108637556    
   7.20843077E-02
  0.114815228    
   5.21011502E-02
   9.03139710E-02
   6.18078075E-02
  0.168430805    
   7.10534975E-02
  0.267292291    
  0.143392920    
  0.336151898    
  0.194056153    
  0.321103364    
  0.238361120    
  0.454182804    
  0.292459846    
  0.493395239    
  0.373379797    
  0.417430699    
  0.315980852    
  0.386908740    
  0.256776303    
  0.357093334    
  0.256448030    
  0.208951026    
  0.184851497    
  0.413693488    
  0.404066205    
  0.441522628    
  0.475886911    
  0.497688770    
  0.530356467    
  0.682967484    
  0.565723240    
  0.767275155    
  0.627455056    
  0.885046780    
  0.744976819    
  0.735415399    
  0.751365483    
  0.642639339    
  0.617504537    
  0.487263411    
  0.455448240    
  0.365014851    
  0.411650807    
  0.410163343    
  0.477371603    
  0.456468433    
  0.520478606    
  0.442751527    
  0.550891101    
  0.585981727    
  0.638105273    
  0.685351491    
  0.821065307    
   1.05145574    
   1.05911922    
   1.24641299    
   1.31958747    
   1.62380254    
   1.63029671    
   1.39107716    
   1.33409262    
  0.942719996    
   1.17990053    
  0.642574012    
  0.829519391    
  0.668564558    
  0.578391016    
  0.610863090    
  0.599029481    
  0.649494767    
  0.552215338    
  0.353293777    
  0.523787677    
  0.178716391    
  0.236255214    
   5.66664562E-02
  0.152905956    
  0.187512726    
   8.05168152E-02
  0.296805501    
  0.216912329    
  0.364921451    
  0.282508880    
  0.339372933    
  0.352467090    
  0.312762082    
  0.319697320    
  0.697040498    
  0.644173801    
  0.735057831    
  0.609828711    
  0.886582375    
  0.672446191    
  0.943106711    
  0.842750251    
   1.15060639    
   1.01535821    
   1.15982890    
   1.12376618    
  0.957486868    
  0.917491019    
   1.00566483    
  0.828814089    
  0.874681234    
  0.813757956    
  0.683585286    
  0.638996363    
  0.338107616    
  0.441952676    
  0.857404411    
  0.940433264    
   1.04100275    
   1.11315882    
  0.779164135    
  0.819314361    
  0.511181474    
  0.563703001    
   3.69451009E-02
   5.78566566E-02
  0.151570708    
  0.106190398    
  0.306443989    
  0.279390275    
  0.470908970    
  0.480622709    
  0.462612778    
  0.539134562    
  0.485001385    
  0.504031837    
  0.530175269    
  0.590207338    
  0.468394160    
  0.569506109    
  0.482937068    
  0.557302892    
  0.513002396    
  0.642999828    
  0.375699043    
  0.505471706    
  0.388032287    
  0.329021066    
  0.691219807    
  0.587707877    
   1.11199403    
  0.890435636    
  0.828981936    
  0.763664782    
  0.454499781    
  0.625589311    
  0.897026062    
  0.683491290    
   1.24522066    
   1.13227570    
   1.63133872    
   1.49727011    
  0.990247428    
   1.04179943    
   1.24591148    
   1.33076251    
   1.50198829    
   1.62271047    
  0.685272098    
  0.666899621    
   1.01271546    
   1.00710952    
   1.08331943    
   1.22398436    
   1.16787744    
   1.26719522    
   1.22221315    
   1.41509807    
  0.667587996    
  0.845039964    
  0.270057261    
  0.351630509    
  0.349546880    
  0.403108627    
  0.320899427    
  0.388730109    
  0.313344836    
  0.359740466    
  0.353419513    
  0.326955199    
  0.355044186    
  0.305405319    
  0.308240175    
  0.264286280    
  0.455421299    
  0.330423534    
  0.663475931    
  0.441015691    
  0.189738452    
  0.326084733    
  0.644754589    
  0.834664822    
  0.664806783    
  0.775810778    
  0.691676617    
  0.755839527    
  0.508328974    
  0.599844635    
  0.156555027    
  0.162278831    
  0.186326623    
  0.147139192    
   8.36081654E-02
  0.130910575    
  0.275471687    
  0.326904893    
  0.190444201    
  0.270127982    
  0.178541780    
  0.224452540    
  0.201136827    
  0.169820338    
  0.167190418    
  0.154079214    
  0.308150083    
  0.157583624    
  0.519672096    
  0.376368552    
  0.506784141    
  0.424040943    
  0.497312456    
  0.405758917    
  0.465013027    
  0.398276806    
  0.473388761    
  0.380505472    
  0.521079898    
  0.401831537    
  0.601855159    
  0.471181601    
  0.565739989    
  0.519680917    
  0.393487513    
  0.394183457    
  0.221007898    
  0.248251364    
  0.157234818    
  0.170725986    
  0.437230736    
  0.281598806    
  0.600178063    
  0.438656092    
  0.671924233    
  0.545464098    
  0.791125059    
  0.599221289    
  0.839802384    
  0.684406161    
  0.921467185    
  0.755924642    
  0.863486290    
  0.752192318    
  0.675879180    
  0.614452243    
  0.519036353    
  0.518020332    
  0.594142854    
  0.625720739    
  0.728684247    
  0.793980777    
  0.763333023    
  0.883558333    
  0.869188070    
  0.914336622    
   1.05902708    
   1.09849668    
   1.55896068    
   1.29556096    
   1.72824717    
   1.79030073    
   2.05942822    
   1.99701750    
   2.61831713    
   2.26213455    
   2.03338766    
   2.04198194    
   1.65926111    
   1.67234516    
   1.24707639    
   1.35592866    
  0.802310109    
  0.923505902    
  0.946005762    
  0.857882679    
   1.22579563    
   1.14911354    
   1.52393913    
   1.46831846    
   1.82071579    
   1.83718300    
   1.88683295    
   2.03874564    
   1.78153038    
   1.93086433    
   1.79942667    
   1.88495481    
   1.53758192    
   1.54990780    
   1.30402648    
   1.40655923    
  0.542725444    
  0.602216244    
  0.620848894    
  0.767991304    
  0.498419613    
  0.678156376    
  0.498974591    
  0.480817765    
  0.511097968    
  0.411779702    
  0.676529527    
  0.476586819    
  0.828513443    
  0.610873818    
   1.07495403    
  0.771023393    
   1.40567327    
   1.23605287    
  0.746869922    
   1.00510836    
  0.907328904    
  0.837507546    
   1.14758587    
   1.08033502    
   1.27297032    
   1.26178527    
   1.55648696    
   1.53940797    
   1.79520571    
   1.81424427    
   2.06810236    
   2.07823539    
   2.11755633    
   2.17526770    
   2.08082581    
   2.18945765    
   2.11083817    
   2.23721790    
   2.06339455    
   2.26745296    
   1.93302655    
   1.96560109    
   1.74205184    
   1.85076559    
   1.64104974    
   1.44882488    
   1.63934267    
   1.67686319    
   1.43175459    
   1.60013175    
   1.44590330    
   1.51872706    
   1.34917510    
   1.54840910    
   1.02260244    
   1.30314827    
   1.06323326    
  0.921321571    
   1.19452465    
   1.02868474    
   1.25235069    
   1.13143420    
   1.30413401    
   1.16400611    
   1.47444415    
   1.27985632    
   1.46096694    
   1.37773526    
   1.40390301    
   1.22929049    
   1.23553073    
   1.23493803    
   1.50831807    
   1.32170272    
   1.49632204    
   1.88678205    
   1.03276145    
   1.04154348    
   1.21919680    
   1.19701767    
   1.36962962    
   1.34045935    
   1.51396310    
   1.48039865    
   1.71039653    
   1.71305728    
   1.60213006    
   1.77147090    
   1.20732677    
   1.37231851    
  0.984869480    
   1.21593285    
   1.11398709    
  0.983333707    
   1.19296551    
   1.07581115    
  0.700737000    
  0.839439690    
  0.819314659    
  0.891746223    
  0.773976266    
  0.869044781    