# vtk DataFile Version 2.0
k223d output
ASCII
DATASET POLYDATA
POINTS 1386 double
351628.182610 4740221.459559 -4333.333333
341090.986542 4762324.653485 -7166.666667
337123.782427 4762586.122616 -10000.000000
342044.483927 4748057.106543 -10000.000000
350741.032740 4745495.263026 -4333.333333
353971.853911 4735895.582465 -1500.000000
349592.392820 4735261.798571 -4333.333333
334829.508047 4767156.390342 -10000.000000
336677.895928 4771129.211863 -7166.666667
345428.237735 4770109.379361 -1500.000000
346947.625827 4755552.213798 -4333.333333
343924.317502 4743299.794738 -10000.000000
347599.502105 4743728.786111 -7166.666667
343521.370067 4765733.890103 -4333.333333
341101.108366 4770531.814559 -4333.333333
344047.431051 4752922.587345 -7166.666667
348758.928386 4750491.881849 -4333.333333
345168.114186 4734565.093954 -7166.666667
347447.994878 4738955.574588 -7166.666667
343193.352206 4738453.141705 -10000.000000
340308.192187 4752868.093102 -10000.000000
342560.932073 4757621.026628 -7166.666667
352500.833318 4750674.405034 -1500.000000
345340.788772 4760681.018854 -4333.333333
347595.365636 4765405.888543 -1500.000000
355563.772407 4740821.012752 -1500.000000
350695.443161 4755526.954533 -1500.000000
354439.706734 4745873.323560 -1500.000000
338783.107146 4757749.934194 -10000.000000
339095.211026 4766831.528526 -7166.666667
345763.239169 4748302.567177 -7166.666667
351493.177578 4731228.532160 -1500.000000
333574.229300 4769386.125767 -10000.000000
349145.071708 4760466.290974 -1500.000000
342880.367179 4774619.608521 -1500.000000
342007.850353 4736235.609469 -10000.000000
352190.409724 4740307.110015 -3928.571429
352752.636838 4740392.760471 -3523.809524
353314.863952 4740478.410927 -3119.047619
353877.091066 4740564.061383 -2714.285714
354439.318179 4740649.711839 -2309.523810
355001.545293 4740735.362295 -1904.761905
355403.191597 4741542.771439 -1500.000000
355242.610787 4742264.530124 -1500.000000
355082.029976 4742986.288814 -1500.000000
354921.449166 4743708.047497 -1500.000000
354760.868355 4744429.806187 -1500.000000
354600.287545 4745151.564872 -1500.000000
354127.315165 4745245.338671 -1814.814815
353814.923596 4744617.353782 -2129.629630
353502.532026 4743989.368893 -2444.444444
353190.140457 4743361.384004 -2759.259259
352877.748887 4742733.399115 -3074.074074
352565.357318 4742105.414226 -3388.888889
352252.965749 4741477.429337 -3703.703704
351940.574179 4740849.444448 -4018.518519
351921.141522 4739680.724922 -3979.166667
352214.100435 4739139.990285 -3625.000000
352507.059348 4738599.255649 -3270.833333
352800.018260 4738058.521012 -2916.666667
353092.977173 4737517.786375 -2562.500000
353385.936086 4736977.051738 -2208.333333
353678.894999 4736436.317102 -1854.166667
354199.270839 4736599.215363 -1500.000000
354426.687767 4737302.848261 -1500.000000
354654.104695 4738006.481159 -1500.000000
354881.521623 4738710.114057 -1500.000000
355108.938551 4739413.746955 -1500.000000
355336.355479 4740117.379853 -1500.000000
340524.243097 4762362.006218 -7571.428571
339957.499652 4762399.358951 -7976.190476
339390.756207 4762436.711684 -8380.952381
338824.012762 4762474.064417 -8785.714286
338257.269317 4762511.417150 -9190.476190
337690.525872 4762548.769883 -9595.238095
337360.828815 4761895.238555 -10000.000000
337597.875204 4761204.354495 -10000.000000
337834.921592 4760513.470435 -10000.000000
338071.967981 4759822.586375 -10000.000000
338309.014369 4759131.702314 -10000.000000
338546.060758 4758440.818254 -10000.000000
339071.592071 4758321.774105 -9645.833333
339360.076995 4758893.614017 -9291.666666
339648.561919 4759465.453928 -8937.500000
339937.046844 4760037.293839 -8583.333333
340225.531768 4760609.133751 -8229.166667
340514.016693 4761180.973662 -7875.000000
340802.501617 4761752.813573 -7520.833333
340805.875754 4762968.492776 -7166.666667
340520.764966 4763612.332068 -7166.666667
340235.654178 4764256.171360 -7166.666667
339950.543390 4764900.010651 -7166.666667
339665.432602 4765543.849943 -7166.666667
339380.321814 4766187.689235 -7166.666667
338848.782451 4766300.852788 -7520.833333
338602.353876 4765770.177049 -7875.000000
338355.925301 4765239.501310 -8229.166667
338109.496726 4764708.825571 -8583.333333
337863.068152 4764178.149832 -8937.500000
337616.639577 4763647.474093 -9291.666667
337370.211002 4763116.798355 -9645.833333
342313.031581 4747377.490571 -10000.000000
342581.579234 4746697.874599 -10000.000000
342850.126888 4746018.258626 -10000.000000
343118.674541 4745338.642654 -10000.000000
343387.222195 4744659.026682 -10000.000000
343655.769849 4743979.410710 -10000.000000
344154.182711 4743925.141293 -9645.833333
344384.047919 4744550.487848 -9291.666667
344613.913127 4745175.834402 -8937.500000
344843.778336 4745801.180957 -8583.333333
345073.643544 4746426.527512 -8229.166667
345303.508752 4747051.874067 -7875.000000
345533.373961 4747677.220622 -7520.833333
345231.988420 4748267.501372 -7571.428571
344700.737671 4748232.435567 -7976.190476
344169.486922 4748197.369762 -8380.952381
343638.236174 4748162.303957 -8785.714286
343106.985425 4748127.238153 -9190.476190
342575.734676 4748092.172348 -9595.238095
350867.768436 4744741.862530 -4333.333333
350994.504132 4743988.462035 -4333.333333
351121.239827 4743235.061540 -4333.333333
351247.975523 4742481.661045 -4333.333333
351374.711219 4741728.260549 -4333.333333
351501.446914 4740974.860054 -4333.333333
353911.324735 4745819.314912 -1904.761905
353382.942736 4745765.306264 -2309.523810
352854.560737 4745711.297617 -2714.285714
352326.178738 4745657.288969 -3119.047619
351797.796739 4745603.280321 -3523.809524
351269.414740 4745549.271673 -3928.571429
353346.216612 4735805.041909 -1904.761905
352720.579314 4735714.501352 -2309.523810
352094.942015 4735623.960796 -2714.285714
351469.304716 4735533.420240 -3119.047619
350843.667418 4735442.879684 -3523.809524
350218.030119 4735352.339128 -3928.571429
349863.933500 4734685.617655 -3928.571428
350135.474179 4734109.436741 -3523.809524
350407.014859 4733533.255823 -3119.047619
350678.555538 4732957.074909 -2714.285715
350950.096219 4732380.893991 -2309.523809
351221.636898 4731804.713076 -1904.761905
351847.274197 4731895.253632 -1500.000000
352201.370816 4732561.975104 -1500.000000
352555.467435 4733228.696577 -1500.000000
352909.564054 4733895.418049 -1500.000000
353263.660673 4734562.139521 -1500.000000
353617.757292 4735228.860993 -1500.000000
351337.355497 4739512.936561 -4333.333333
351046.528384 4738804.413562 -4333.333333
350755.701271 4738095.890564 -4333.333333
350464.874159 4737387.367566 -4333.333333
350174.047046 4736678.844568 -4333.333333
349883.219933 4735970.321569 -4333.333333
348960.353015 4735162.269340 -4738.095238
348328.313210 4735062.740109 -5142.857143
347696.273406 4734963.210878 -5547.619048
347064.233601 4734863.681647 -5952.380952
346432.193796 4734764.152416 -6357.142857
345800.153991 4734664.623185 -6761.904762
345695.202802 4734287.047138 -6694.444444
346222.291418 4734009.000322 -6222.222222
346749.380034 4733730.953506 -5750.000000
347276.468650 4733452.906690 -5277.777778
347803.557266 4733174.859874 -4805.555556
348330.645882 4732896.813057 -4333.333333
348857.734498 4732618.766241 -3861.111111
349384.823114 4732340.719425 -3388.888889
349911.911730 4732062.672609 -2916.666667
350439.000346 4731784.625793 -2444.444444
350966.088962 4731506.578977 -1972.222222
335157.261530 4766503.494953 -10000.000000
335485.015013 4765850.599563 -10000.000000
335812.768495 4765197.704173 -10000.000000
336140.521978 4764544.808784 -10000.000000
336468.275461 4763891.913395 -10000.000000
336796.028944 4763239.018005 -10000.000000
338485.824886 4766877.937357 -7571.428571
337876.438747 4766924.346188 -7976.190476
337267.052607 4766970.755019 -8380.952381
336657.666467 4767017.163850 -8785.714286
336048.280327 4767063.572680 -9190.476190
335438.894187 4767109.981511 -9595.238095
335093.563458 4767723.936273 -9595.238095
335357.618870 4768291.482205 -9190.476191
335621.674282 4768859.028137 -8785.714286
335885.729693 4769426.574068 -8380.952381
336149.785105 4769994.120000 -7976.190476
336413.840517 4770561.665931 -7571.428571
336160.618157 4770838.697514 -7638.888889
335643.340385 4770548.183164 -8111.111111
335126.062614 4770257.668815 -8583.333333
334608.784843 4769967.154466 -9055.555555
334091.507071 4769676.640116 -9527.777778
333888.048987 4768828.691911 -10000.000000
334201.868673 4768271.258054 -10000.000000
334515.688360 4767713.824198 -10000.000000
338749.880298 4767445.483289 -7166.666667
338404.549570 4768059.438051 -7166.666667
338059.218841 4768673.392814 -7166.666667
337713.888113 4769287.347576 -7166.666667
337368.557385 4769901.302338 -7166.666667
337023.226657 4770515.257100 -7166.666667
341438.184188 4762811.687287 -6761.904762
341785.381834 4763298.721090 -6357.142857
342132.579481 4763785.754893 -5952.380952
342479.777127 4764272.788695 -5547.619048
342826.974774 4764759.822498 -5142.857143
343174.172420 4765246.856300 -4738.095238
342889.061632 4765890.695592 -4738.095238
342256.753198 4766047.501081 -5142.857143
341624.444764 4766204.306570 -5547.619048
340992.136329 4766361.112059 -5952.380952
340359.827895 4766517.917548 -6357.142857
339727.519461 4766674.723037 -6761.904762
345189.879276 4769562.443204 -1854.166667
344951.520818 4769015.507046 -2208.333333
344713.162359 4768468.570889 -2562.500000
344474.803901 4767921.634732 -2916.666667
344236.445442 4767374.698575 -3270.833333
343998.086984 4766827.762418 -3625.000000
343759.728525 4766280.826260 -3979.166667
344103.369434 4765687.032737 -3928.571429
344685.368801 4765640.175372 -3523.809524
345267.368168 4765593.318006 -3119.047619
345849.367535 4765546.460640 -2714.285714
346431.366902 4765499.603274 -2309.523810
347013.366269 4765452.745909 -1904.761905
347285.775936 4766077.815803 -1500.000000
346976.186236 4766749.743063 -1500.000000
346666.596536 4767421.670322 -1500.000000
346357.006835 4768093.597582 -1500.000000
346047.417135 4768765.524842 -1500.000000
[...]
CELL_DATA 2621
SCALARS velocity double 1
LOOKUP_TABLE default
2443.396251
2411.179810
2408.730159
2444.037150
2434.156512
2401.234568
2600.203961
3023.368607
2571.740499
2537.335584
2499.178060
2486.625648
2437.765252
2407.857340
2678.391659
2644.035191
2723.112959
2626.707411
2861.676846
2798.943507
2600.509727
2542.352649
2557.948949
2707.142594
2512.102586
2655.979390
2784.488883
2404.907912
2476.680406
2965.105388
2751.760044
2923.879638
2522.107663
2882.117331
2627.949722
2732.014770
2435.036116
2501.384329
2681.393064
2946.366411
2751.765022
2397.976703
2791.121211
2618.895831
2848.065444
2400.370023
2690.431510
2534.178554
2780.414383
2424.211271
2520.774213
2577.317840
2692.589098
2828.161517
2430.277935
2584.747323
2871.088774
2484.731428
2489.489608
2449.020336
2516.758333
2414.940267
2448.670426
2408.730159
2516.130744
2404.513889
2504.924811
2532.068805
2435.700019
2439.705351
2543.415468
2408.279424
2558.893442
3020.089286
2442.359492
2589.833163
2496.123438
2409.080068
2406.425928
2508.956895
2783.190727
2540.096285
2844.079338
2756.819722
2559.171122
2713.927188
2919.729773
2957.676201
2870.207920
2932.378582
2728.161652
2404.274092
2669.644728
2752.002093
2832.389968
2622.046931
2769.772136
2817.836810
2856.614201
2746.701477
2698.440563
2492.815758
2655.499409
2433.787981
2618.669465
2632.888129
2523.725288
2582.992863
2613.155370
2662.673971
2670.787507
2596.669455
2596.076583
2691.534638
2618.191179
2620.143650
2676.230327
4365.596242
4232.897511
4324.027440
4433.056559
4183.740828
4346.137429
4238.587731
4391.907065
4338.506148
4466.269841
4008.993658
4470.486111
4044.695741
3854.910714
4282.877628
4189.478160
4210.251196
4273.428796
4466.786718
4125.060297
3918.162317
3956.108745
4468.065023
4297.552600
4289.230604
4055.047322
3943.459936
4256.050246
4358.277240
4034.283722
4390.628760
4383.641307
4225.947153
4472.182973
4017.108448
4389.058407
4113.786030
4213.598479
4442.669084
4443.610370
4439.818412
4444.888674
4102.052352
4153.976804
4384.968708
4443.936363
4131.519129
4471.753389
4130.603997
4293.052730
4344.269335
4476.823652
4307.120759
4362.025730
4183.143445
4099.452582
3864.007964
3830.870393
3930.854361
3864.600552
3825.396825
4272.465892
4248.218134
3821.180556
3954.084747
4436.755952
3855.671866
3997.907889
3918.105979
3940.382953
3821.900337
4130.214317
3824.804238
3932.060870
4260.722480
4173.523759
4086.022496
4199.871239
4113.712922
3822.534295
3909.246717
3850.218939
4037.230375
4335.508671
3850.938721
3852.767966
3820.705050
4234.576269
4285.963293
4348.157480
4373.455099
3973.997562
4026.967028
3909.938808
4071.574455
3974.611483
4168.362015
4165.068713
4047.499658
3998.236198
3938.732915
3912.250494
4188.174794
3944.450937
4146.208298
4083.219213
4007.497232
4108.227524
4078.545487
4036.598233
4026.469649
4028.212682
4001.145155
4093.420180
4308.593410
4317.459460
4151.564942
4368.561632
4387.363663
4116.878415
4420.845265
4356.325390
4224.008721
4249.622639
4349.191331
4466.269841
4330.276848
4470.486111
3854.910714
4427.085525
3917.928806
3955.875234
4099.911134
4260.541188
4237.680546
4033.398142
4190.355076
4466.712953
4123.804659
4212.383751
4427.055476
4144.457871
4430.425668
4460.342523
4007.874567
4470.083145
4361.379506
4156.626336
4353.384948
4387.766629
3943.226425
4373.517035
4311.460616
4446.391441
4058.278773
4472.510101
4046.808102
4476.308296
4290.566519
4215.676865
4214.138183
4309.706318
4020.106389
4446.794407
4119.667014
4253.940418
4439.223054
4268.575270
3057.098765
2566.446135
2915.981343
2901.225770
2605.417357
2434.964727
2714.004984
2828.938839
2669.120225
2947.547246
2971.708476
2787.247042
2738.828113
3021.352019
3014.771955
2830.039907
2675.607046
3051.693099
3052.992253
2816.984012
2753.035881
2506.848900
2832.466649
3047.154182
2488.109923
2529.335673
2981.653059
3060.356762
3050.951106
2830.827561
2845.995353
2727.283115
3020.610025
2629.482596
3024.177612
2598.289258
2778.348772
2678.194283
2774.144698
2881.494451
2931.619271
3034.122195
3060.154538
2714.798051
3026.424379
2885.059089
2662.785193
2861.524554
2581.437316
2776.038833
2960.212296
3028.514303
2966.229414
2923.328668
2883.809802
2977.990717
2936.024546
2937.471919
2975.900792
2931.425528
2880.311851
2745.960897
2543.845961
2712.349193
2914.658053
2948.388211
2509.979061
2442.518744
2510.220658
2813.367769
2510.172575
3015.873016
2408.730159
2408.730159
2712.098826
2442.446616
2745.800026
2442.634060
2914.658053
2847.107514
2408.788585
2509.858048
2442.628774
2712.160089
2813.401842
2611.271525
2644.650885
2408.840189
2408.793872
2611.062225
2847.188149
2712.329820
2543.792704
2813.482477
2543.585728
2611.194595
2543.609560
2408.713979
2509.904455
2442.444138
2645.024742
2408.732637
2610.925901
2543.970588
2746.050393
2644.952987
2442.526509
2509.992000
2644.733905
2611.349108
3042.502614
2933.572352
2779.903552
2904.121581
2844.401049
3010.454986
3008.259990
2807.439230
3013.447968
2909.948784
3047.690592
2818.548981
2943.166477
2603.668763
2716.834304
2628.583464
3013.960433
2803.412682
3053.819444
3049.603175
2833.942068
2438.244048
3024.496407
2965.468630
3051.285706
2742.800085
3049.090709
2691.933906
2539.521277
2946.500115
3021.962669
2614.944463
2641.528439
2704.375266
2790.815373
2678.694728
2501.574849
2526.872468
3054.010296
2705.757095
2766.023972
2876.758072
2589.733597
2962.956852
2935.976702
2887.148130
2849.865112
2950.760637
2794.793690
2731.247862
2902.141419
2878.712429
2932.585540
2857.051401
3196.826555
3247.923982
3630.573871
2536.006248
3613.708792
2552.871327
2747.786923
3380.016785
3320.262205
2816.092319
3131.971854
2706.516560
3443.840978
3200.357873
2787.138775
3082.938857
3024.215293
3259.689864
3142.056898
3220.344344
3419.368637
2947.482251
2848.067301
2914.597171
3117.295570
3049.835252
3153.116104
3015.174646
3312.027641
3658.682337
2507.897782
2858.924707
2595.926362
2607.169748
3570.720815
2846.836241
3559.477429
2965.857204
2723.381640
3257.083324
3354.917141
3460.706057
3042.351079
3112.832219
3003.395604
3076.385131
3018.290022
2906.919689
3322.453266
2637.301066
3529.432658
2665.409532
3501.324192
2966.485659
2943.334092
2919.636609
3718.584656
2448.082011
4109.235196
4130.751858
4260.493510
4218.204699
4263.606572
4432.573607
4466.115421
4229.098584
4439.756459
4150.706873
4330.912469
4380.402383
4432.385263
4434.087937
4466.458185
4348.362427
4364.292387
3854.910714
4328.920001
4466.269841
4470.486111
4364.830972
4290.612363
4336.060063
3918.136248
3943.433867
4125.817684
4059.135195
4161.920584
4467.629752
4470.265817
4364.924945
4021.170253
4278.991717
4293.076480
4118.598285
4375.346255
4469.490642
3956.082676
4440.751928
4381.724150
4230.734410
4031.907240
4437.120394
4263.844835
4177.908307
4046.381064
4351.883963
4006.591107
4205.143355
4093.213859
4184.753245
4206.525268
4260.527844
4337.400347
4376.164754
3950.576465
4267.849312
3967.441544
4283.560212
4205.257671
4466.269841
4366.662992
4268.356402
4237.833650
4165.905819
3922.467999
4471.304090
3995.550010
4146.250061
4434.123310
4435.592001
4326.480530
4129.384982
4467.853468
4352.847371
4439.157558
4474.943853
4036.230485
4058.717258
4086.825724
4446.247942
4390.784028
4380.128086
3864.748677
3924.233184
3959.448735
4060.311936
3825.267180
3858.997339
3926.528077
3824.975867
3858.706026
4026.237520
4024.927435
3957.451053
3825.396825
3825.396825
4432.539683
4059.471552
3858.695671
4028.619584
3923.019987
4266.357307
4063.288888
3926.457657
3960.559903
3926.166343
4162.919425
4131.990265
4128.373366
4130.377118
4028.149866
4230.974630
4026.336281
3958.455005
4234.027450
3824.283521
4165.127461
3956.357146
3825.095158
3857.001166
4333.001724
3823.691966
3857.712012
4165.507578
4333.001724
4366.731883
3856.308821
4129.402112
4266.941708
4231.559032
3922.955180
4062.190500
3752.555153
3648.475080
3619.559881
3621.375830
3719.724148
3721.140912
3520.078945
3657.645185
3625.059255
3548.195647
3318.926149
3649.724633
3351.480147
3660.641599
3725.105503
3757.936508
3757.936508
3150.793651
3523.720212
3660.347739
3454.773022
3657.302541
3557.042427
3553.016358
3609.889807
3252.257588
3517.090091
3252.257588
3218.527429
3625.788535
3758.835662
3351.998443
3760.252426
3452.168970
3545.614736
3759.788694
3417.262652
3352.382847
3728.374453
3724.762859
3758.493018
3556.883974
3318.541745
3726.615045
3420.251107
3449.404812
3417.079005
3452.393267
3512.835776
2537.009574
2613.985441
2557.667091
2447.989840
2652.841784
2549.210027
2411.415062
2518.324488
2681.208941
2445.145221
2408.730159
2404.513889
2627.408974
2857.265308
2642.135642
2833.012640
3020.089286
2405.662080
2411.574778
2717.427771
2433.181218
2492.208995
2476.866605
2919.314063
2482.779303
2844.050904
2931.962872
2957.260491
2755.455965
2781.798535
2667.754879
2512.605538
2818.903626
2694.044177
2434.329409
2869.763776
2756.569493
2403.667329
2667.076987
2581.810111
2731.651519
2608.377697
2427.189475
2433.102173
2657.363937
2516.649321
2493.007782
2581.247818
2744.231752
2769.732985
2521.373480
2581.146141
2396.527395
2525.650565
2567.362556
2603.843083
2625.291446
2651.402529
2412.240793
2446.100739
2723.381946
2758.182793
2453.631588
2408.730159
2516.865785
2636.364283
2404.513889
2563.739324
2434.781264
3020.089286
2447.644234
2918.825068
2956.771497
2615.267881
2546.359033
2597.659907
2774.135738
2513.723902
2545.709466
2659.049159
2750.490752
2683.654792
2841.353319
2408.859946
2729.984654
2575.954200
2866.577197
2662.330707
2718.010805
2477.236596
2931.473878
2521.091905
2489.853036
2827.557755
2816.635320
2402.742805
2401.311369
2488.166020
2563.293181
2660.397449
2564.669025
2854.508007
2430.825258
2513.728707
2754.884220
2620.958072
2502.687224
2423.851841
2436.602751
2397.540472
3162.896673
3295.211694
3382.116108
3166.896417
3362.881069
3245.600120
3127.544565
3112.847222
3122.685185
3333.799841
3230.004204
3283.615521
3722.800926
3153.408372
3222.923097
3223.147661
3149.972584
3115.249653
3260.746066
3419.087862
3118.685442
3487.531843
3118.056264
3369.056018
3456.735039
3634.943509
3654.619435
3537.405908
3605.429620
3143.505210
3476.949582
3518.268599
3111.588891
3429.478904
3546.256210
3566.616386
3200.130557
3401.131072
3450.437745
3201.850348
3360.948094
3303.170651
3141.102780
3246.545304
3255.532261
3339.503056
3228.961806
3320.278919
3289.247916
3869.031064
4030.842538
4021.479038
3905.251179
3825.396825
3944.607135
3944.030147
3821.180556
3862.228741
3954.042795
4145.437763
4436.755952
4192.759740
4087.127211
4057.068391
4103.752754
4374.959423
4337.012995
3996.230964
4188.917664
4255.364688
4081.658111
4167.927976
3934.801252
3823.437060
3903.779074
4282.109825
3936.491382
4041.052152
3822.652661
4140.554856
4143.296994
3983.495915
4349.661804
4089.111051
3893.388439
3987.209480
3894.172838
4001.585820
3818.594502
4251.555106
3844.373955
3846.223402
3815.237407
3843.589556
4188.635132
3975.270141
4072.880805
3844.751296
4241.766710
4025.952264
3850.364895
4281.160657
3812.603562
3921.463284
3909.599438
3754.626570
3720.699136
3715.823650
3720.113001
3752.314815
3755.175502
3649.331344
3731.477809
3765.432099
3345.021691
3333.329770
3148.919753
3757.153098
3722.676732
3650.898230
3515.429553
3516.622789
3500.071821
3619.111054
3606.708095
3623.453730
3458.196435
3757.190301
3679.008674
3655.965278
3538.809920
3520.154503
3440.596800
3380.548513
3228.159921
3215.042637
3650.726501
3304.901798
3366.005867
3689.814203
3560.366139
3768.517907
3267.511773
3618.710561
3385.262441
3608.513962
3621.226873
3558.381320
3742.283339
3292.320978
3413.379538
3559.945070
3533.953741
3447.834262
3404.976183
3553.030227
3478.127289
3455.856082
3465.452674
3453.524018
3420.894665
3252.951474
3220.334784
3622.766518
3218.835012
3656.496677
3151.374694
3520.526437
3220.572149
3320.044364
3724.206349
3117.063492
3117.063492
3150.659181
3418.484691
3217.642933
3452.006306
3152.381858
3117.644535
3622.766518
3554.386497
3354.056857
3152.386931
3419.195851
3520.905694
3351.258968
3118.075729
3117.639463
3254.213872
3318.967879
3555.176299
3253.290071
3420.816023
3251.437448
3251.341973
3116.897904
3521.695495
3218.088380
3320.169345
3150.628062
3317.427577
3117.094611
3454.416279
3354.080606
3151.400740
3218.759825
3320.843055
3351.842845
2929.630589
2802.490295
2872.648593
2847.129793
2840.906304
2914.733194
2693.714420
2811.181377
2602.858623
2948.555782
2716.458115
2626.622766
3016.016100
3053.819444
2965.180330
3024.208107
3049.603175
2438.244048
2945.133978
3016.599528
2910.842197
3018.823543
3016.273419
3050.072367
2706.240459
2539.241177
2735.192338
2948.720672
3049.746259
3052.084509
2743.813490
2640.998398
3049.860494
2956.243101
3022.473172
2814.657052
2613.793905
2701.688522
2788.505291
3053.721996
2501.294749
2674.857427
2526.592368
2761.027146
2588.302940
2962.599694
2875.890411
2916.026376
2934.820741
2858.045367
2846.687368
2787.840726
2770.102791
2841.280095
2712.075430
2408.931307
2611.367188
2544.334177
2645.453902
2745.578557
2544.966160
2642.410852
2443.138042
2510.397211
2442.190262
2846.382593
2442.936894
2812.425402
2511.437149
2408.730159
2408.730159
3015.873016
2744.210319
2408.693985
2442.424144
2710.921763
2643.235156
2610.321979
2711.484606
2611.949901
2409.206735
2914.510671
2542.825488
2813.265031
2509.294024
2408.258955
2509.884462
2914.510671
2948.240830
2812.824303
2609.141120
2407.969854
2608.818196
2508.335025
2441.663839
2846.823322
2744.547004
2441.228809
2709.890211
2643.331923
2542.136233
2508.002324
2541.414555
3196.484596
3247.589281
3630.510913
2536.133440
3613.645834
2552.998519
2747.773482
3379.967552
3320.138974
2816.131601
3131.710723
2706.522078
3443.773045
3082.736876
2787.125334
3200.078288
3024.218899
3259.615867
3141.851310
3220.281969
2947.523002
2848.120024
3419.319404
2914.690645
3117.266171
3049.805854
3153.024331
3311.706081
3015.185998
2858.937055
3658.619379
2508.024974
2596.072512
2607.315899
3570.639159
2846.795867
2965.833877
3559.395772
3256.822621
3354.669579
2723.387157
3460.638125
3042.369263
3112.747278
3076.189981
3003.595037
3018.452310
2906.892756
3322.254937
2637.320025
3529.413959
2665.428490
3501.305494
2966.614182
2943.579415
2919.814249
3718.584656
2448.082011
3754.936661
3719.930782
3651.821491
3756.660788
3523.839162
3723.292185
3623.809657
3722.930629
3553.297946
3758.584900
3724.854742
3757.936508
3757.936508
3150.793651
3419.686742
3523.146391
3619.310882
3624.724262
3454.626077
3351.965427
3650.041193
3655.470312
3556.615552
3613.576378
3517.082103
3553.126284
3546.801885
3659.719742
3452.051057
3217.089890
3250.820049
3657.394424
3559.595028
3628.059669
3760.022191
3317.071190
3449.845180
3250.820049
3759.201829
3417.080732
3726.120063
3662.815513
3349.561182
3417.219867
3727.557353
3351.934437
3452.451190
3317.040200
3514.535287
3869.170779
3904.620297
4033.198039
3947.475615
3943.174954
3825.396825
4145.920066
4192.145413
4088.513137
3957.334817
3821.180556
3862.665455
4436.755952
4189.125119
4024.902727
4374.754677
4059.422209
4336.808249
3998.730103
4104.159836
4255.339615
4081.832665
4168.160504
3823.980954
3977.089795
3895.303446
3903.952920
3936.631096
4141.437872
4281.880006
3821.847932
4041.930701
4143.128809
3984.514179
3922.701389
4089.821416
4349.457058
3934.323908
3987.711418
4001.535355
3818.891502
3893.170424
3845.592519
3845.126714
4250.904218
4188.045878
3815.411253
3842.993692
3844.925142
4075.735630
4241.345640
3911.241723
4026.076353
4280.534841
3851.205789
3812.812427
4365.613455
4383.030759
4353.230867
4420.660745
4330.716944
4153.122996
4116.854739
4466.269841
4224.945294
4250.743456
4470.486111
4344.815301
3854.910714
4427.137280
4361.113813
3917.919573
3955.866002
4261.373155
4233.867373
4185.364295
4033.098627
4098.541829
4373.015797
4466.292888
4435.165932
4208.462760
4439.645159
4122.734868
4468.873044
4470.772115
4007.565819
4311.114699
4143.060372
4157.908551
4353.200428
3943.217192
4381.395972
4058.582807
4440.709754
4291.002238
4469.937639
4472.746376
4046.803388
4294.751561
4020.401189
4215.756490
4440.423750
4215.576447
4309.677848
4121.253262
4254.096467
4439.039264
4268.839320
4385.139893
4358.587854
4302.875721
2915.408406
2691.748685
2897.287698
2730.931419
2838.609597
2589.818696
2624.837332
2803.212020
3049.603175
3007.881041
2972.626180
2824.198741
3053.819444
2797.001715
2906.129044
2438.244048
2942.173789
2724.124002
3005.197549
3011.957885
2776.381305
3046.919682
2941.532994
2526.337306
3011.771113
2708.018953
3048.371536
2863.467163
2797.529018
3046.732910
2615.564724
2883.646478
2682.958677
2934.191007
2843.675998
2637.697207
2743.289124
2945.288434
2982.326893
3056.433623
2807.203218
2501.039687
2538.986115
2967.891956
2702.414903
3024.743591
2908.349321
2836.906999
3026.919734
2599.302370
2903.144341
3034.444304
3061.344015
2940.420723
3252.203681
3160.816939
3117.063492
3109.567901
3228.277257
3315.789840
3272.484459
3138.880094
3294.926920
3190.195895
3214.520180
3329.921488
3373.955463
3334.694067
3731.701940
3237.853128
3215.314542
3148.066933
3109.315986
3146.328964
3116.764856
3517.026872
3114.635410
3361.140855
3575.988704
3496.593723
3673.014330
3631.788580
3436.203997
3112.897442
3335.166524
3430.938737
3596.004798
3153.291907
3416.462126
3353.480502
3654.275353
3109.538460
3473.772451
3260.994250
3556.387013
3188.019689
3530.928952
3232.404458
3457.963264
3281.544053
3422.862180
3573.431818
3478.730912
3305.616671
3386.557906
3498.074960
3135.550553
3402.314942
3400.768413
3140.840536
3213.100922
3343.335880
3209.262016
3265.821974
3196.810645
3713.810132
3678.454661
3550.474274
3757.936508
3637.219975
3639.833739
3437.019467
3762.152778
3720.362623
3390.701136
3627.640392
3494.582722
3146.577381
3525.066287
3559.733778
3479.275041
3208.342311
3246.288740
3585.869085
3394.216507
3327.926820
3501.527020
3415.248021
3759.475132
3679.427944
3648.870670
3301.150084
3646.349815
3541.492059
3761.179494
3440.093573
3606.446048
3441.687803
3598.556160
3233.639930
3493.490395
3595.815418
3688.447867
3690.152230
3581.779245
3764.488999
3660.792193
3331.816937
3737.482439
3738.438714
3767.969611
3394.867570
3740.143077
3508.510562
3738.455722
3341.678758
3672.727034
3557.264598
3732.297464
3302.253212
3770.630249
3257.113079
3225.810866
3202.147373
3275.245731
3419.623962
3422.882465
3245.504156
3143.270557
3199.965535
3117.063492
3574.333672
3158.449493
3530.852511
3112.847222
3364.488000
3303.127422
3245.497655
3388.324999
3728.422619
3471.455908
3157.883912
3305.929285
3116.497911
3461.336999
3638.761243
3350.622709
3120.335021
3287.597755
3550.155762
3313.707600
3520.506935
3485.451094
3324.559078
3664.058862
3626.112434
3112.352157
3198.310263
3141.885471
3230.458863
3228.074912
3145.722580
3557.333655
3200.893823
3114.251734
3358.596740
3460.948389
3141.866045
3366.191008
3388.416015
3369.633557
3264.754603
3428.536692
3108.720893
3151.253421
3450.232399
3225.909811
4337.506370
4376.422258
3950.171350
3967.036429
4268.077907
4283.858044
4466.269841
4205.364136
4366.699778
4238.009352
4268.425639
4166.012284
3922.062884
4471.455571
4353.190219
4435.997598
4434.160096
3995.144894
4326.602660
4467.890255
4146.426174
4129.561094
4439.345826
4475.349450
4036.300133
4058.786905
4086.895371
4446.805021
4391.463237
4380.655814
3864.748677
3655.196345
3618.249401
3524.340317
3756.255430
3653.458541
3722.525271
3624.917042
3554.498170
3758.625754
3724.895595
3721.920624
3757.936508
3757.936508
3150.793651
3523.434035
3560.010402
3549.332563
3518.762464
3624.901511
3420.290525
3556.751947
3655.064954
3620.333029
3454.777326
3660.064082
3352.417960
3554.553790
3452.303912
3657.435278
3449.818583
3217.080346
3250.810505
3757.331861
3760.151528
3317.514180
3628.490886
3725.816722
3250.810505
3726.328008
3759.368921
3416.831959
3417.392948
3349.502543
3663.239673
3727.853782
3351.432808
3316.529027
3515.860636
3453.277148
3958.547928
4056.575930
3923.763258
3825.251121
3858.981279
4025.566858
3825.036540
3858.766698
3926.846003
3825.396825
4432.539683
3825.396825
4026.527158
4230.117826
4061.215654
3925.415820
4061.900195
3858.169178
4161.143985
4263.714040
3926.441597
3961.388263
3926.227016
4162.851829