# vtk DataFile Version 2.0
k223d output
ASCII
DATASET UNSTRUCTURED_GRID
POINTS       1948 double
   0.0000000000000000        0.0000000000000000        0.0000000000000000     
   0.0000000000000000        77085.022647000005        0.0000000000000000     
   17320.508075999998        77085.022647000005       -10000.000000000000     
   17320.508075999998        0.0000000000000000       -10000.000000000000     
   0.0000000000000000        988.26952100000005        0.0000000000000000     
   0.0000000000000000        1976.5390420000001        0.0000000000000000     
   0.0000000000000000        2964.8085630000000        0.0000000000000000     
   0.0000000000000000        3953.0780840000002        0.0000000000000000     
   0.0000000000000000        4941.3476060000003        0.0000000000000000     
   0.0000000000000000        5929.6171270000004        0.0000000000000000     
   0.0000000000000000        6917.8866479999997        0.0000000000000000     
   0.0000000000000000        7906.1561689999999        0.0000000000000000     
   0.0000000000000000        8894.4256900000000        0.0000000000000000     
   0.0000000000000000        9882.6952110000002        0.0000000000000000     
   0.0000000000000000        10870.964732000000        0.0000000000000000     
   0.0000000000000000        11859.234253000001        0.0000000000000000     
   0.0000000000000000        12847.503774999999        0.0000000000000000     
   0.0000000000000000        13835.773295999999        0.0000000000000000     
   0.0000000000000000        14824.042817000000        0.0000000000000000     
   0.0000000000000000        15812.312338000000        0.0000000000000000     
   0.0000000000000000        16800.581859000002        0.0000000000000000     
   0.0000000000000000        17788.851380000000        0.0000000000000000     
   0.0000000000000000        18777.120900999998        0.0000000000000000     
   0.0000000000000000        19765.390422000000        0.0000000000000000     
   0.0000000000000000        20753.659943999999        0.0000000000000000     
   0.0000000000000000        21741.929465000001        0.0000000000000000     
   0.0000000000000000        22730.198985999999        0.0000000000000000     
   0.0000000000000000        23718.468507000001        0.0000000000000000     
   0.0000000000000000        24706.738028000000        0.0000000000000000     
   0.0000000000000000        25695.007549000002        0.0000000000000000     
   0.0000000000000000        26683.277070000000        0.0000000000000000     
   0.0000000000000000        27671.546590999998        0.0000000000000000     
   0.0000000000000000        28659.816112000000        0.0000000000000000     
   0.0000000000000000        29648.085633999999        0.0000000000000000     
   0.0000000000000000        30636.355155000001        0.0000000000000000     
   0.0000000000000000        31624.624675999999        0.0000000000000000     
   0.0000000000000000        32612.894197000001        0.0000000000000000     
   0.0000000000000000        33601.163718000003        0.0000000000000000     
   0.0000000000000000        34589.433238999998        0.0000000000000000     
   0.0000000000000000        35577.702760000000        0.0000000000000000     
   0.0000000000000000        36565.972281000002        0.0000000000000000     
   0.0000000000000000        37554.241802999997        0.0000000000000000     
   0.0000000000000000        38542.511323999999        0.0000000000000000     
   0.0000000000000000        39530.780845000001        0.0000000000000000     
   0.0000000000000000        40519.050366000003        0.0000000000000000     
   0.0000000000000000        41507.319886999998        0.0000000000000000     
   0.0000000000000000        42495.589408000000        0.0000000000000000     
   0.0000000000000000        43483.858929000002        0.0000000000000000     
   0.0000000000000000        44472.128449999997        0.0000000000000000     
   0.0000000000000000        45460.397971999999        0.0000000000000000     
   0.0000000000000000        46448.667493000001        0.0000000000000000     
   0.0000000000000000        47436.937014000003        0.0000000000000000     
   0.0000000000000000        48425.206534999998        0.0000000000000000     
   0.0000000000000000        49413.476056000000        0.0000000000000000     
   0.0000000000000000        50401.745577000002        0.0000000000000000     
   0.0000000000000000        51390.015098000003        0.0000000000000000     
   0.0000000000000000        52378.284618999998        0.0000000000000000     
   0.0000000000000000        53366.554141000001        0.0000000000000000     
   0.0000000000000000        54354.823662000003        0.0000000000000000     
   0.0000000000000000        55343.093182999997        0.0000000000000000     
   0.0000000000000000        56331.362703999999        0.0000000000000000     
   0.0000000000000000        57319.632225000001        0.0000000000000000     
   0.0000000000000000        58307.901746000003        0.0000000000000000     
   0.0000000000000000        59296.171266999998        0.0000000000000000     
   0.0000000000000000        60284.440788000000        0.0000000000000000     
   0.0000000000000000        61272.710309000002        0.0000000000000000     
   0.0000000000000000        62260.979830999997        0.0000000000000000     
   0.0000000000000000        63249.249351999999        0.0000000000000000     
   0.0000000000000000        64237.518873000001        0.0000000000000000     
   0.0000000000000000        65225.788394000003        0.0000000000000000     
   0.0000000000000000        66214.057914999998        0.0000000000000000     
   0.0000000000000000        67202.327436000007        0.0000000000000000     
   0.0000000000000000        68190.596957000002        0.0000000000000000     
   0.0000000000000000        69178.866477999996        0.0000000000000000     
   0.0000000000000000        70167.135999999999        0.0000000000000000     
   0.0000000000000000        71155.405520999993        0.0000000000000000     
   0.0000000000000000        72143.675042000003        0.0000000000000000     
   0.0000000000000000        73131.944562999997        0.0000000000000000     
   0.0000000000000000        74120.214084000007        0.0000000000000000     
   0.0000000000000000        75108.483605000001        0.0000000000000000     
   0.0000000000000000        76096.753125999996        0.0000000000000000     
   866.02540399999998        77085.022647000005       -500.00000000000000     
   1732.0508080000000        77085.022647000005       -1000.0000000000000     
   2598.0762110000001        77085.022647000005       -1500.0000000000000     
   3464.1016150000000        77085.022647000005       -2000.0000000000000     
   4330.1270189999996        77085.022647000005       -2500.0000000000000     
   5196.1524230000005        77085.022647000005       -3000.0000000000000     
   6062.1778260000001        77085.022647000005       -3500.0000000000000     
   6928.2032300000001        77085.022647000005       -4000.0000000000000     
   7794.2286340000001        77085.022647000005       -4500.0000000000000     
   8660.2540379999991        77085.022647000005       -5000.0000000000000     
   9526.2794419999991        77085.022647000005       -5500.0000000000000     
   10392.304845000001        77085.022647000005       -6000.0000000000000     
   11258.330249000001        77085.022647000005       -6500.0000000000000     
   12124.355653000001        77085.022647000005       -7000.0000000000000     
   12990.381057000001        77085.022647000005       -7500.0000000000000     
   13856.406461000000        77085.022647000005       -8000.0000000000000     
   14722.431864000000        77085.022647000005       -8500.0000000000000     
   15588.457268000000        77085.022647000005       -9000.0000000000000     
   16454.482671999998        77085.022647000005       -9500.0000000000000     
   17320.508075999998        76096.753125999996       -10000.000000000000     
   17320.508075999998        75108.483605000001       -10000.000000000000     
   17320.508075999998        74120.214084000007       -10000.000000000000     
   17320.508075999998        73131.944562999997       -10000.000000000000     
   17320.508075999998        72143.675042000003       -10000.000000000000     
   17320.508075999998        71155.405520999993       -10000.000000000000     
   17320.508075999998        70167.135999999999       -10000.000000000000     
   17320.508075999998        69178.866479000004       -10000.000000000000     
   17320.508075999998        68190.596957000002       -10000.000000000000     
   17320.508075999998        67202.327436000007       -10000.000000000000     
   17320.508075999998        66214.057914999998       -10000.000000000000     
   17320.508075999998        65225.788394000003       -10000.000000000000     
   17320.508075999998        64237.518873000001       -10000.000000000000     
   17320.508075999998        63249.249351999999       -10000.000000000000     
   17320.508075999998        62260.979830999997       -10000.000000000000     
   17320.508075999998        61272.710310000002       -10000.000000000000     
   17320.508075999998        60284.440788000000       -10000.000000000000     
   17320.508075999998        59296.171266999998       -10000.000000000000     
   17320.508075999998        58307.901746000003       -10000.000000000000     
   17320.508075999998        57319.632225000001       -10000.000000000000     
   17320.508075999998        56331.362703999999       -10000.000000000000     
   17320.508075999998        55343.093182999997       -10000.000000000000     
   17320.508075999998        54354.823662000003       -10000.000000000000     
   17320.508075999998        53366.554141000001       -10000.000000000000     
   17320.508075999998        52378.284618999998       -10000.000000000000     
[...]
CELL_DATA       3698
SCALARS slip double 1
LOOKUP_TABLE default
  0.16066124278141306     
   7.8002652017909416E-002
  0.11001655534268623     
  0.12324191308632011     
   1.2921732489212006     
   1.1611807764816291     
   7.8685872120757019E-002
  0.10873928486215068     
   1.1665777766940171     
   6.6608620440245250E-002
  0.23472394612156836     
   4.8706034564640101E-002
   1.2927108026089829     
  0.11647257582961074     
  0.18587881113919749     
   1.3216691882507059     
   1.1713581992376807     
   2.4446119758849433E-002
   1.0858262160664043     
   7.2645038698089526E-002
  0.13732924240209035     
  0.11888307859964285     
   9.0219284946058131E-002
   9.9164331158789754E-002
   1.0572314975075192     
   1.1820557519191239     
   1.0350333166764323     
   3.1302702135927438E-002
   1.1666743301911935     
   2.3691610627361949E-002
   1.2777483579626872     
  0.15088765037423948     
   1.0076545335904903     
   6.8490638270589974E-002
   1.1181315680498753     
  0.13039095172671469     
   1.1026163372890474     
  0.18112797232573871     
  0.10288505859043093     
  0.10996433999790511     
   7.1439713245289832E-002
   1.1771057957439401     
  0.19478630379493611     
   1.1908181031799017     
   1.1612309178380538     
   7.1683784243075033E-002
   5.4235298408078551E-002
   3.5728893800673421E-002
  0.12700922912590526     
   1.1485403679864301     
   1.0984127483343356     
  0.19230236644476109     
  0.12738959635000702     
   1.3556663833316331E-002
  0.18177150087685090     
   4.4768455645426634E-002
   6.5269099607388539E-002
   9.6283518032518889E-002
   1.0976879267039659     
   1.0054381756230924E-002
   8.8790814182684891E-002
   9.1823804116499416E-002
  0.10861635384958497     
  0.49556405767728479     
   1.2427373187416721     
   0.0000000000000000     
  0.50423356450349821     
   1.0287912919494493     
   5.6690642987317240E-003
   9.1354053116509695E-002
  0.65709706458252892     
  0.14836613565682483     
  0.23697018065274866     
   6.2760145861796929E-002
  0.15165417263263034     
   1.1952060348481366     
  0.10298606135214712     
  0.10228263690749817     
   8.4542292203291111E-002
   1.1470929909522654     
   8.5765977247778305E-002
   1.1316391015283311     
  0.12251974824942025     
  0.21771016991707615     
   3.6954355430747578E-002
  0.11848237622835026     
   1.0405681095985728E-002
   9.3769843788379395E-002
   9.3433094478050066E-002
   8.5760991937469597E-002
  0.13925463351786149     
  0.42409075936788349     
   7.3823545957350203E-002
  0.12408327577328813     
  0.10526739264980844     
  0.11099930983806799     
  0.18309923314913273     
  0.10537117077934897     
   1.0278241807316277     
   8.1574489039937956E-002
   4.5400925790166545E-002
   0.0000000000000000     
   1.1550659024825440     
   6.2366498545958327E-002
  0.18587566917134063     
   8.0795901168208561E-002
  0.14202943213074298     
   1.2177608254265206     
   1.1051354516690206     
   9.6512379991877839E-002
   6.6979728899254895E-002
   5.0484177346124683E-002
   1.0983937547062375     
   1.5218092317305256E-002
   1.1881221970780673     
   9.9418483715333822E-002
   7.5634817110945163E-002
   7.5055211341008010E-002
   9.4932029445278829E-002
   8.9219923885752728E-002
  0.18000090064109331     
  0.15675085949751968     
   7.0180480201441672E-002
   1.1293956953064377     
  0.10190068880895188     
  0.11911388834692881     
   1.2142394042327245     
   1.1363019201310744     
   1.2173082830482089     
   8.8449338145069785E-003
  0.11352122825012265     
   1.1136645197966359     
   1.1474818459334588     
  0.50981263515854802     
  0.17791737186185985     
   6.0833981959713845E-002
  0.12559809846285136     
   1.0270607586900400     
   9.1499092217137826E-002
   1.0748559444161687     
  0.36001118006037935     
  0.82485750871504748     
   1.3380457817249229     
  0.25430466369194621     
  0.18555686751008782     
  0.45761962068558920     
  0.86894967802177303     
   1.6902966191977304E-002
  0.15516384628758700     
   8.1945637309680047E-002
  0.13910242152682162     
   1.3047472573231973     
  0.11485830320437962     
  0.87182743394263218     
   1.1637476355465701     
  0.22856870103912263     
  0.85666114621383282     
   1.5942900031081253     
   9.3617279132307302E-002
  0.11744007379038450     
  0.38142444842281054     
  0.16641027114390564     
  0.17285513792485493     
   1.3448664551216889     
   1.1209495946999231     
  0.13703993631974165     
  0.12537985691338832     
  0.41348819630539690     
  0.89162122755955309     
   1.2685968993908356     
   1.1789655802252683     
   1.0375971901564625     
  0.93763788327234887     
   1.3261260685476102     
  0.62369837759897984     
  0.68842664576525925     
   6.5824978835893194E-002
  0.71989078564691822     
  0.11261874774800611     
   1.0475501959675448     
   1.0170517815639393     
   1.0550146887704537     
   1.1690369032793670     
   1.1766410014693602     
  0.57448877043676372     
  0.24396801536987850     
   9.2283959850879782E-002
  0.18563826260996180     
  0.40504681694976186     
  0.50244905011611052     
  0.95077349416466928     
  0.58704856057278498     
   1.1733913003402880     
   1.2420416034097468     
  0.18742721041642266     
   1.2330272068243724     
   2.9672973815546349E-003
  0.93298778347567712     
   1.1194784745191442     
   1.1451185992284667     
  0.51890345999115406     
   1.1147366385217168     
  0.18939151268809509     
  0.44637914089164610     
  0.42844726112532128     
   6.0558711142403514E-002
  0.93762810919646800     
  0.92112181522909609     
   1.2206507631288492     
   1.0926030600251044     
  0.12679174314426730     
   1.1317894329285845     
   1.2683689606476780     
   1.2168980404647540     
  0.98895600271046913     
   1.1910663034103230     
   1.3138623262899314     
   1.1906812856145581     
  0.94709962057641195     
   1.1768550139638472     
   1.6051826276327712     
   1.2293772381839188     
   1.2320453026362510     
   1.0784140099155117     
   1.2694670971524047     
  0.98775786488889095     
  0.16580841572336374     
  0.20326126558698412     
   1.2072144732643602     
   1.1116564481145497     
   1.3032235856176593     
   1.4845960263300637     
  0.11490902558616130     
   1.3371909401793252     
   3.3842648838619024E-002
   1.4175638825096830     
   1.1530799862358048     
   1.4218993319879252     
   0.0000000000000000     
   4.3738906553627728E-002
  0.42884194193201680     
   1.2069389382609730     
   1.2490579363682552     
  0.96762327092997591     
   1.5054418608399691     
  0.19771197539282565     
  0.93147327368696908     
   7.6248177415170634E-002
   1.2202972851593670     
   1.4135898893204513     
   1.2414039141955249     
  0.98420457621159896     
   7.3619191506320056E-002
   1.2174928952689810     
   1.1413230413644371     
  0.26119235943571251     
   1.2439623693947963     
   1.0517897177208366     
   1.2240795028141780     
  0.88110680209749559     
   1.0294577750404668     
   1.0600439228494380     
   1.2019935435138474     
  0.89488003119532478     
   1.1994662022205158     
   3.2784331762787423E-002
   1.1008292400716981     
   1.2635675532900603     
   1.1912385068866096     
   1.3992468472605488     
   1.0659964470680472     
   1.1500406519103286     
   1.0086507744007724     
  0.17348965999660504     
   1.4821937426030840     
   1.0418629509715815     
  0.26965407516816969     
   1.3972430868634063     
   1.0153008714043772     
   1.2132082319983801     
   1.0670160111344638     
   1.5705674693564433     
   1.3010531439347828     
   1.1591020059343817     
   1.5411622884830962     
   1.4039425618406156     
  0.12074240653537355     
  0.33779632311966457     
   1.4756083605787951     
   1.1147819603369702     
   1.4211299492217231     
   1.0050068600575381     
   1.5494359007097749     
  0.48099123646453090     
  0.17674751508466971     
   1.5023890799355737     
   1.5088106504887857     
   1.3748482220806075     
   1.4477316957299400     
   1.4730677019705960     
   1.5508801754222175     
   1.4793538158618922     
   1.4100669731561188     
   1.3414978214971267     
  0.94370414592920848     
   1.4035968781366794     
   1.4808366584078021     
   1.4085285867821844     
  0.36009901449223219     
   1.0573376916774657     
   1.4471971222026527     
   1.2797197997777332     
  0.13656371700765249     
   1.2171658829046088     
   1.2922490586382103     
  0.87609095323849007     
   1.1200811387410061     
  0.58055325401470603     
   1.2374606334405691     
   1.1601847986498306     
  0.83077278559015488     
   1.0786447213470072     
   1.1948371464720191     
  0.86432650542423550     
   1.1221015472419964     
   1.1437239459594326     
   3.9856630759248175E-002
   1.0025095679626126     
   1.1744486706104760     
  0.87429941212227891     
   1.0647851882987107     
   1.1102417491225676     
  0.99115226017106384     
   7.3370256817829424E-002
   1.0203121203499266     
   6.0171544064780737E-002
   7.9740298678141266E-002
  0.51894933230305262     
   1.1337660941758552     
  0.36554526827570799     
  0.69648872072257839     
  0.12708727572677139     
   1.2103266115993403     
  0.11832215017367215     
  0.94507385451939241     
   1.1335288981450395     
   1.2185047217768759     
  0.61708479694990936     
   8.7445272213995728E-002
   1.1263021271478622     
  0.53548898478473150     
   1.0844783281836812     
   1.1659929348601368     
   1.1692277968284319     
   1.1180209310012956     
   1.0637411932121827     
  0.88729822874795661     
   1.0072327599844464     
   1.1146686259539806     
   1.3118240503301000     
   5.3243199408578461E-002
   1.2132947383193484     
  0.21425044372343138     
   1.1582381053751880     
   1.1450272847065355     
  0.34214319019172806     
   1.1858279007253074     
  0.84604248743111332     
   1.5309943329041282     
   1.4362237297204021     
   1.1854088608231879     
   1.5377171300529773     
   1.3873978579037096     
   1.2550795195953559     
   1.3301227584788820     
   1.1808760157226064     
   9.6010945482751131E-002
   1.2405815825268578     
   1.4735397481852450     
   1.4517797058767550     
   1.4402520912999421     
   1.2324673028208422     
   1.2958300327570975     
   1.2068815134085176     
   1.1627618482832498     
   1.6904755884749629     
   1.2015707395420574     
   1.2262301535817002     
  0.11834601138271293     
   1.6306318053279232     
   1.3441060909835485     
  0.92051377206617957     
  0.87694426445846718     
   1.0988856864409142     
  0.15414068762363947     
   1.5555868729473099     
   1.6368604368891120     
  0.79159826577625692     
   1.0313234980540769     
  0.87465215626866477     
   1.4476965969982298     
   9.0141219822191546E-002
   1.6684633292156608     
  0.22545818104260140     
  0.89415913358002308     
   1.2392322186628921     
   1.2059458107745167     
   1.0477160627002677     
   1.0837454831292268     
  0.10676984969875125     
  0.99379216061755116     
   1.5162728023246272     
   1.2276259689513243     
  0.77036541578305040     
  0.68374014541833894     
   1.1781606081219826     
   1.2641196704968063     
   1.2236875891031080     
   1.0351411771154670     
   1.5848643419410526     
  0.51157987631903012     
   1.2618767237823127     
  0.23794524995023963     
   1.2484036757232013     
  0.80577181943522802     
   1.3881234493353150     
   1.1855024807441470     
  0.28082963911222553     
   1.3682154761791878     
   1.2440980186929278     
  0.87877117308001895     
   1.0281849627654862     
  0.74194429792916972     
   1.2085817271652983     
   1.5390920552217637     
   1.3849463619496651     
   6.3839703570411022E-002
   1.2723444935506676     
   1.0772638957533107     
   1.1502050512039321     
   1.1713121784720071     
   1.2410544881713188     
   4.7773195938251467E-002
   1.1150886724985436     
   1.0552986757335090     
   1.2924153539316587     
   1.0574281899832472     
   1.1951789004078819     
   1.1638191225921846     
   1.2521315708040619     
   1.2078226211254903     
   1.1218313108561162     
   1.2903605118243653     
   1.0801267082179706     
   1.3685561141419340     
   1.2886734275438860     
   1.2251124876447130     
   1.0994478953170097     
   1.3765999832089360     
   1.0241691072598809     
   1.2724038892075396     
   1.3169269786200706     
   1.3326399658417392     
   1.3315167262528691     
   1.0758268317948549     
   1.0544322148855356     
   1.5696453613091461     
   1.4398778512309656     
   1.3064883641492810     
   1.0968750885292793     
   1.0656588794102115     
   1.1909991124404413     
   1.3782940233093848     
  0.96830536513401055     
   1.3922424509774798     
   1.4238578331069778     
  0.90949811141358772     
   1.3994040049025609     
   1.3722930652908922     
   1.0599273070730004     
  0.93934726212845299     
   1.3369915311869045     
  0.58962543481869489     
   1.1037036330206340     
  0.76474211705755180     
   1.2888878434558924     
  0.94309486664527120     
   1.2811027828742365     
   1.4214513577566004     
   1.4845932020272030     
  0.84626109982401354     
   1.1180118310079263     
   1.1502655692962163     
   1.3423432355973415     
  0.94260638067553382     
   1.0283550743071666     
  0.87830139127213536     
   1.1554555284367518     
   1.1921999543616653     
   1.1117940356718965     
   1.4221581880902594     
   1.1866555848414806     
   1.0607971141318646     
   1.1777640633267419     
   1.1777816300028781     
   1.4420276093306503     
   1.3243138624953130     
   1.2170895924530831     
   1.0620118501224758     
   1.0590297041820553     
   1.5117517140895831     
  0.93492533928039279     
   1.0321038921649630     
   1.2016587935062080     
   1.0860995276408201     
  0.95748814413707528     
   1.2305515122913477     
   1.1876011952981191     
   1.2087769947247069     
   1.3942346132814307     
   1.0610321700857424     
   1.2065073529922299     
   1.5257442963018004     
   1.1969189744653943     
  0.95353662168274134     
   1.5263818917017777     
   8.3287841402689397E-002
   9.5207385146701809E-002
   1.3598898614109043     
  0.87652555293803280     
   1.1188030891537986     
   1.4039660103772547     
  0.82088489712314949     
   1.3361288413378145     
  0.91514902221459293     
   1.4252416095432670     
   1.4111623576986141     
  0.95529473835869394     
   1.2457587784079536     
   1.4169856977458974     
  0.51682781480323869     
  0.88899407895123828     
  0.97674082472769674     
   1.0616328701381215     
  0.99714525402108378     
   1.0461148704652321     
   1.5072457049050285     
  0.94758817656992578     
   1.2486913870249228     
   1.3320855752240672     
  0.82933190197022932     
   1.3684639226420661     
   1.1532164089331582     
   1.5158582930204218E-002
   1.4638682739784330     
   1.0053491394301919     
   3.7135407794295634E-003
   1.2118861835384771     
   1.4117145612095412     
  0.10799249076597135     
   1.0326141106576434     
  0.87222668415841254     
   1.1997284294884498     
   1.3826477672610242     
   1.4899258503996307     
   1.2715748844759762     
   1.4568515846177972     
  0.98559707584482548     
  0.20982468119639169     
   1.4280001597403680     
  0.81403517809450310     
   1.3697274955253549     
  0.96874885198510430     
   1.2881564792049409     
   1.0028069751013045     
   1.3837884150553452     
  0.85129686457841602     
   1.2421615599456224     
   1.0376780295001473     
   1.2137793919720923     
   1.2895200376505231     
   1.2363182049608337     
   1.3553342638173898     
   1.2558816246255071     
   1.1719649239748944     
   1.3304770070726739     
   1.2275975552769152     
   1.5713992607639029     
   1.1453338394772385     
   1.3418539916927552     
  0.95294876196343115     
  0.90871891968700069     
   1.1663680046706340     
  0.13752256142689903     
  0.91874698036513447     
   1.1088195880253755     
   1.1742592512375474     
   1.0367068819678578     
   1.4872061039534190     
   1.2499506014564614     
  0.18625691380766482     
   1.5144988025003387     
  0.88953652512537129     
   1.1331788143761219     
  0.95081302147193092     
   1.0875084641162769     
   1.3042873599080964     
  0.55840145393005980     
   1.1239039151315391     
  0.37638543262561086     
   1.1116164890673117     
  0.60315578235926748     
  0.80301739821566798     
   1.0041466678098010     
  0.68145933551539783     
  0.82881460966448306     
   1.1427475102768276     
   1.0590915926641484     
   1.1328035350447814     
  0.53774273489571001     
   9.9077203664424074E-002
   1.1145779836830496     
  0.88519411854504948     
  0.60076926868455094     
  0.68256360052030152     
  0.90834060815306616     
  0.58574601810472415     
   1.0995977741678173     
   1.0798640091936647     
   1.2025539945740609     
  0.71677219356189847     
   7.8430198183149034E-003
   1.0816885231321058     
   1.5006292991339767     
   1.0810650592062812     
   1.0335010371701321     
   1.1697279085455583     
  0.56013297042252197     
   1.1283515985375321     
  0.61651428269717479     
   1.3935205891516542     
   1.3495749587033998     
   1.2132671145414646     
   1.2360295850128444     
   1.2053776172463946     
   1.1959969904636909     
  0.54724527594895256     
   1.5259661445674431     
  0.57743269226476357     
  0.26505590701004200     
  0.18057576016013988     
   1.2359861319512153     
  0.46962543469768425     
   1.1678945010601887     
   1.5137413653281433     
   1.1370473813019055     
   1.1474352988267009     
   1.4241510434565978     
   1.0607523099652596     
  0.43922116086646745     
   1.2188860824537799     
   1.3804018214567269     
   1.3425911362551937     
  0.39216600635869986     
   1.0384463505196766     
   1.6586115268949668     
  0.34444892833009599     
  0.46805800430882788     
  0.96022286141905755     
  0.48667229057613554     
   1.5918127182261432     
  0.58787606998432673     
   1.1606443074459731     
  0.96352204056683355     
   1.0724987346500023     
   1.4545492573386372     
   1.4095188287311420     
   1.6185436800894799     
  0.72397219088929854     
  0.58142496231965868     
  0.84961441472057853     
  0.97847910723112308     
  0.97904402278731140     
   1.6500465744396406     
  0.75272383918333596     
  0.66989119547028653     
   1.5906370671929431     
   1.5132523441395154     
  0.90614513566372423     
   1.4501311426386212     
   1.1503198170765967     
  0.54144051992823838     
   1.5914893433087569     
   1.2530851395593874     
  0.79782116161056449     
  0.97653405821536143     
   1.0678568443583636     
  0.59004614334281313     
   1.0885035252827102     
  0.65535680265193719     
   1.6408768112693171     
  0.80410248655804062     
   1.6820786401082115     
   1.4537605670678182     
   1.3688004327725127     
  0.97694122149679186     
  0.36272275940896026     
  0.57764758677123396     
  0.90242599039048577     
  0.30244647639634215     
  0.65586941691741540     
  0.88097543340026063     
   1.0313600547000388     
  0.10255117673612166     
   1.4061034708966376     
   1.0483699600933907     
  0.61977100441122546     
   1.0977313427464306     
  0.58182398740939789     
   1.6050352467219331     
   1.6489589798317588     
   1.3031246289532854     
   1.0877981597021360     
   1.3838519871478292     
  0.98930437910504976     
  0.92682802275895459     
   1.3758172167829059     
  0.52494588650793483     
   1.2368364331950914     
  0.90034639756312296     
   1.1352720203658573     
   7.3161163243008143E-002
   1.0937897820653171     
   1.1199887466171110     
  0.95464854777758201     
   1.1495600127281047     
   1.1522379000617928     
   1.0860804786393037     