# vtk DataFile Version 2.0
distance
ASCII
DATASET UNSTRUCTURED_GRID
POINTS       1948 double
   0.0000000000000000        0.0000000000000000        0.0000000000000000     
   0.0000000000000000        77085.022647000005        0.0000000000000000     
   17320.508075999998        77085.022647000005       -10000.000000000000     
   17320.508075999998        0.0000000000000000       -10000.000000000000     
   0.0000000000000000        988.26952100000005        0.0000000000000000     
   0.0000000000000000        1976.5390420000001        0.0000000000000000     
   0.0000000000000000        2964.8085630000000        0.0000000000000000     
   0.0000000000000000        3953.0780840000002        0.0000000000000000     
   0.0000000000000000        4941.3476060000003        0.0000000000000000     
   0.0000000000000000        5929.6171270000004        0.0000000000000000     
   0.0000000000000000        6917.8866479999997        0.0000000000000000     
   0.0000000000000000        7906.1561689999999        0.0000000000000000     
   0.0000000000000000        8894.4256900000000        0.0000000000000000     
   0.0000000000000000        9882.6952110000002        0.0000000000000000     
   0.0000000000000000        10870.964732000000        0.0000000000000000     
   0.0000000000000000        11859.234253000001        0.0000000000000000     
   0.0000000000000000        12847.503774999999        0.0000000000000000     
   0.0000000000000000        13835.773295999999        0.0000000000000000     
   0.0000000000000000        14824.042817000000        0.0000000000000000     
   0.0000000000000000        15812.312338000000        0.0000000000000000     
   0.0000000000000000        16800.581859000002        0.0000000000000000     
   0.0000000000000000        17788.851380000000        0.0000000000000000     
   0.0000000000000000        18777.120900999998        0.0000000000000000     
   0.0000000000000000        19765.390422000000        0.0000000000000000     
   0.0000000000000000        20753.659943999999        0.0000000000000000     
   0.0000000000000000        21741.929465000001        0.0000000000000000     
   0.0000000000000000        22730.198985999999        0.0000000000000000     
   0.0000000000000000        23718.468507000001        0.0000000000000000     
   0.0000000000000000        24706.738028000000        0.0000000000000000     
   0.0000000000000000        25695.007549000002        0.0000000000000000     
   0.0000000000000000        26683.277070000000        0.0000000000000000     
   0.0000000000000000        27671.546590999998        0.0000000000000000     
   0.0000000000000000        28659.816112000000        0.0000000000000000     
   0.0000000000000000        29648.085633999999        0.0000000000000000     
   0.0000000000000000        30636.355155000001        0.0000000000000000     
   0.0000000000000000        31624.624675999999        0.0000000000000000     
   0.0000000000000000        32612.894197000001        0.0000000000000000     
   0.0000000000000000        33601.163718000003        0.0000000000000000     
   0.0000000000000000        34589.433238999998        0.0000000000000000     
   0.0000000000000000        35577.702760000000        0.0000000000000000     
   0.0000000000000000        36565.972281000002        0.0000000000000000     
   0.0000000000000000        37554.241802999997        0.0000000000000000     
   0.0000000000000000        38542.511323999999        0.0000000000000000     
   0.0000000000000000        39530.780845000001        0.0000000000000000     
   0.0000000000000000        40519.050366000003        0.0000000000000000     
   0.0000000000000000        41507.319886999998        0.0000000000000000     
   0.0000000000000000        42495.589408000000        0.0000000000000000     
   0.0000000000000000        43483.858929000002        0.0000000000000000     
   0.0000000000000000        44472.128449999997        0.0000000000000000     
   0.0000000000000000        45460.397971999999        0.0000000000000000     
   0.0000000000000000        46448.667493000001        0.0000000000000000     
   0.0000000000000000        47436.937014000003        0.0000000000000000     
   0.0000000000000000        48425.206534999998        0.0000000000000000     
   0.0000000000000000        49413.476056000000        0.0000000000000000     
   0.0000000000000000        50401.745577000002        0.0000000000000000     
   0.0000000000000000        51390.015098000003        0.0000000000000000     
   0.0000000000000000        52378.284618999998        0.0000000000000000     
   0.0000000000000000        53366.554141000001        0.0000000000000000     
   0.0000000000000000        54354.823662000003        0.0000000000000000     
   0.0000000000000000        55343.093182999997        0.0000000000000000     
   0.0000000000000000        56331.362703999999        0.0000000000000000     
   0.0000000000000000        57319.632225000001        0.0000000000000000     
   0.0000000000000000        58307.901746000003        0.0000000000000000     
   0.0000000000000000        59296.171266999998        0.0000000000000000     
   0.0000000000000000        60284.440788000000        0.0000000000000000     
   0.0000000000000000        61272.710309000002        0.0000000000000000     
   0.0000000000000000        62260.979830999997        0.0000000000000000     
   0.0000000000000000        63249.249351999999        0.0000000000000000     
   0.0000000000000000        64237.518873000001        0.0000000000000000     
   0.0000000000000000        65225.788394000003        0.0000000000000000     
   0.0000000000000000        66214.057914999998        0.0000000000000000     
   0.0000000000000000        67202.327436000007        0.0000000000000000     
   0.0000000000000000        68190.596957000002        0.0000000000000000     
   0.0000000000000000        69178.866477999996        0.0000000000000000     
   0.0000000000000000        70167.135999999999        0.0000000000000000     
   0.0000000000000000        71155.405520999993        0.0000000000000000     
   0.0000000000000000        72143.675042000003        0.0000000000000000     
   0.0000000000000000        73131.944562999997        0.0000000000000000     
   0.0000000000000000        74120.214084000007        0.0000000000000000     
   0.0000000000000000        75108.483605000001        0.0000000000000000     
   0.0000000000000000        76096.753125999996        0.0000000000000000     
   866.02540399999998        77085.022647000005       -500.00000000000000     
   1732.0508080000000        77085.022647000005       -1000.0000000000000     
   2598.0762110000001        77085.022647000005       -1500.0000000000000     
   3464.1016150000000        77085.022647000005       -2000.0000000000000     
   4330.1270189999996        77085.022647000005       -2500.0000000000000     
   5196.1524230000005        77085.022647000005       -3000.0000000000000     
   6062.1778260000001        77085.022647000005       -3500.0000000000000     
   6928.2032300000001        77085.022647000005       -4000.0000000000000     
   7794.2286340000001        77085.022647000005       -4500.0000000000000     
   8660.2540379999991        77085.022647000005       -5000.0000000000000     
   9526.2794419999991        77085.022647000005       -5500.0000000000000     
   10392.304845000001        77085.022647000005       -6000.0000000000000     
   11258.330249000001        77085.022647000005       -6500.0000000000000     
   12124.355653000001        77085.022647000005       -7000.0000000000000     
   12990.381057000001        77085.022647000005       -7500.0000000000000     
   13856.406461000000        77085.022647000005       -8000.0000000000000     
   14722.431864000000        77085.022647000005       -8500.0000000000000     
   15588.457268000000        77085.022647000005       -9000.0000000000000     
   16454.482671999998        77085.022647000005       -9500.0000000000000     
   17320.508075999998        76096.753125999996       -10000.000000000000     
   17320.508075999998        75108.483605000001       -10000.000000000000     
   17320.508075999998        74120.214084000007       -10000.000000000000     
   17320.508075999998        73131.944562999997       -10000.000000000000     
   17320.508075999998        72143.675042000003       -10000.000000000000     
   17320.508075999998        71155.405520999993       -10000.000000000000     
   17320.508075999998        70167.135999999999       -10000.000000000000     
   17320.508075999998        69178.866479000004       -10000.000000000000     
   17320.508075999998        68190.596957000002       -10000.000000000000     
   17320.508075999998        67202.327436000007       -10000.000000000000     
   17320.508075999998        66214.057914999998       -10000.000000000000     
   17320.508075999998        65225.788394000003       -10000.000000000000     
   17320.508075999998        64237.518873000001       -10000.000000000000     
   17320.508075999998        63249.249351999999       -10000.000000000000     
   17320.508075999998        62260.979830999997       -10000.000000000000     
   17320.508075999998        61272.710310000002       -10000.000000000000     
   17320.508075999998        60284.440788000000       -10000.000000000000     
   17320.508075999998        59296.171266999998       -10000.000000000000     
   17320.508075999998        58307.901746000003       -10000.000000000000     
   17320.508075999998        57319.632225000001       -10000.000000000000     
   17320.508075999998        56331.362703999999       -10000.000000000000     
   17320.508075999998        55343.093182999997       -10000.000000000000     
   17320.508075999998        54354.823662000003       -10000.000000000000     
   17320.508075999998        53366.554141000001       -10000.000000000000     
   17320.508075999998        52378.284618999998       -10000.000000000000     
[...]
POINT_DATA       1948
SCALARS Rupt_time  double 1
LOOKUP_TABLE default
   0.0000000000000000     
   0.0000000000000000     
   0.0000000000000000     
   0.0000000000000000     
   0.0000000000000000     
   0.0000000000000000     
   0.0000000000000000     
   0.0000000000000000     
   0.0000000000000000     
   0.0000000000000000     
   0.0000000000000000     
   0.0000000000000000     
   0.0000000000000000     
   0.0000000000000000     
   14.772534264679079     
   14.310739139773416     
   13.851185628124142     
   13.394759500430911     
   12.941037970615978     
   12.491222059927205     
   12.044587756244498     
   11.600632802255427     
   11.162810773286555     
   10.729128006065951     
   10.301819552252280     
   9.8801470978922072     
   9.4654388128335860     
   9.0608201273410263     
   8.6639778480093135     
   8.2788173287597484     
   7.9051200878744687     
   7.5452884974078618     
   7.1962925985092117     
   6.8631271883834915     
   6.5468965407472997     
   6.2564736035262003     
   5.9820535474028569     
   5.7309403182846141     
   5.5154328904725007     
   5.3281936573174731     
   5.1756130835432925     
   5.0603199016661033     
   4.9996714692347153     
   5.0008777504164632     
   5.0725460518418313     
   5.1920778794522500     
   5.3560769846128595     
   5.5604818055678900     
   5.8008993930009485     
   6.0729360995804322     
   6.3724376049728795     
   6.6956275115417663     
   7.0391664887726160     
   7.4001573656970878     
   7.7761181434246538     
   8.1649393234696745     
   8.5648555371129902     
   8.9743696150978458     
   9.4015182438297860     
   9.8365030831971634     
   10.278267016560864     
   10.724440465752640     
   11.176054725287015     
   11.630967943941906     
   12.089564498072928     
   12.551694393163936     
   13.015703662058836     
   13.482427072329994     
   13.950924167570371     
   14.421492292391239     
   0.0000000000000000     
   0.0000000000000000     
   0.0000000000000000     
   0.0000000000000000     
   0.0000000000000000     
   0.0000000000000000     
   0.0000000000000000     
   0.0000000000000000     
   0.0000000000000000     
   0.0000000000000000     
   0.0000000000000000     
   0.0000000000000000     
   0.0000000000000000     
   0.0000000000000000     
   0.0000000000000000     
   0.0000000000000000     
   0.0000000000000000     
   0.0000000000000000     
   0.0000000000000000     
   0.0000000000000000     
   0.0000000000000000     
   0.0000000000000000     
   0.0000000000000000     
   0.0000000000000000     
   0.0000000000000000     
   0.0000000000000000     
   0.0000000000000000     
   0.0000000000000000     
   0.0000000000000000     
   0.0000000000000000     
   0.0000000000000000     
   0.0000000000000000     
   0.0000000000000000     
   0.0000000000000000     
   0.0000000000000000     
   0.0000000000000000     
   0.0000000000000000     
   0.0000000000000000     
   0.0000000000000000     
   0.0000000000000000     
   0.0000000000000000     
   14.469566527251841     
   13.999759158342309     
   13.531780687266892     
   13.065432129829567     
   12.601117586563779     
   12.140992357275934     
   11.681462842193243     
   11.225018063823272     
   10.772581844850196     
   10.324875269950503     
   9.8845257993133586     
   9.4490078612103847     
   9.0233601216613959     
   8.6019678588507205     
   8.1984267767839825     
   7.8056879267784076     
   7.4255297366236999     
   7.0600651232184992     
   6.7117955845931725     
   6.3836607519091215     
   6.0790739850790754     
   5.8019268453200601     
   5.5565372212172548     
   5.3475122491237173     
   5.1794995398683872     
   5.0568202168434153     
   4.9832134433685260     
   4.9812607072474711     
   5.0400649090901890     
   5.1562980165434373     
   5.3086109937378563     
   5.4973602723460457     
   5.7168254692893186     
   5.9662240409310980     
   6.2366308503093597     
   6.5310116519415997     
   6.8427183090072958     
   7.1740159714500926     
   7.5189138186468494     
   7.8762566079022900     
   8.2470201318806460     
   8.6276574447806968     
   9.0174418103008875     
   9.4160223376592640     
   9.8248217471687518     
   10.241874604459611     
   10.668624163102976     
   11.102474442720897     
   11.542106350085669     
   11.987818885422792     
   12.436419856764493     
   12.887973854134884     
   13.341688823488898     
   13.799172830824398     
   14.259879482400933     
   14.722874868313404     
   0.0000000000000000     
   0.0000000000000000     
   0.0000000000000000     
   0.0000000000000000     
   0.0000000000000000     
   0.0000000000000000     
   0.0000000000000000     
   0.0000000000000000     
   0.0000000000000000     
   0.0000000000000000     
   0.0000000000000000     
   0.0000000000000000     
   0.0000000000000000     
   0.0000000000000000     
   0.0000000000000000     
   0.0000000000000000     
   0.0000000000000000     
   0.0000000000000000     
   0.0000000000000000     
   0.0000000000000000     
   0.0000000000000000     
   0.0000000000000000     
   0.0000000000000000     
   0.0000000000000000     
   0.0000000000000000     
   0.0000000000000000     
   0.0000000000000000     
   0.0000000000000000     
   0.0000000000000000     
   14.576973140027164     
   5.8975272131937171     
   7.7560913632485287     
   11.794311189899256     
   14.374378844259166     
   12.124669503872125     
   4.8356524086469950     
   4.6822452387518867     
   8.6289846898258808     
   6.0829721919956503     
   9.8285327059243066     
   10.154503973583878     
   7.3302246080744071     
   13.115355552113465     
   5.3261251908498561     
   6.9018368341086695     
   5.4681990947828822     
   13.425291565387392     
   0.0000000000000000     
   9.4697687733417322     
   4.6549411396781810     
   4.6075764800948598     
   0.0000000000000000     
   10.315443942312848     
   0.0000000000000000     
   0.0000000000000000     
   0.0000000000000000     
   0.0000000000000000     
   0.0000000000000000     
   0.0000000000000000     
   0.0000000000000000     
   0.0000000000000000     
   0.0000000000000000     
   8.9091843076875676     
   11.691871608300696     
   12.075007127866794     
   13.173155778485384     
   8.1327642973306187     
   6.3226524439618155     
   7.0738377836651907     
   0.0000000000000000     
   0.0000000000000000     
   0.0000000000000000     
   0.0000000000000000     
   0.0000000000000000     
   0.0000000000000000     
   0.0000000000000000     
   0.0000000000000000     
   0.0000000000000000     
   0.0000000000000000     
   0.0000000000000000     
   0.0000000000000000     
   10.826943157960020     
   8.6331163837915454     
   6.5881078200175969     
   5.0146692290720098     
   10.776580409374253     
   5.9083581991314063     
   11.118196436614307     
   5.1926971364318293     
   5.0227844474145904     
   4.5381237392510201     
   4.6211221735089829     
   4.8830113459867315     
   8.9671367978256740     
   8.1465210190656130     
   11.176638299590140     
   0.0000000000000000     
   7.8383628489440120     
   9.4103630927898809     
   13.464772164978376     
   14.068816193923359     
   0.0000000000000000     
   0.0000000000000000     
   14.302451541512971     
   0.0000000000000000     
   0.0000000000000000     
   0.0000000000000000     
   0.0000000000000000     
   0.0000000000000000     
   0.0000000000000000     
   0.0000000000000000     
   0.0000000000000000     
   0.0000000000000000     
   0.0000000000000000     
   0.0000000000000000     
   0.0000000000000000     
   0.0000000000000000     
   0.0000000000000000     
   0.0000000000000000     
   0.0000000000000000     
   0.0000000000000000     
   0.0000000000000000     
   0.0000000000000000     
   0.0000000000000000     
   0.0000000000000000     
   0.0000000000000000     
   0.0000000000000000     
   0.0000000000000000     
   0.0000000000000000     
   0.0000000000000000     
   0.0000000000000000     
   0.0000000000000000     
   0.0000000000000000     
   0.0000000000000000     
   0.0000000000000000     
   13.251102117602741     
   0.0000000000000000     
   13.241343442222288     
   12.814318837661331     
   12.816571722988924     
   12.386572364841097     
   13.249852743744585     
   12.395320183380235     
   11.960525708656442     
   11.957947316624686     
   11.529716567820845     
   11.539413936128074     
   11.104000593696691     
   11.101755589878877     
   10.673042608378225     
   10.683690880356975     
   10.247656912886907     
   10.245929248905945     
   9.8165162148810250     
   9.8282760177869211     
   9.3914904841828069     
   9.3904752174937496     
   8.9599603259589813     
   8.9731523098849522     
   8.5354520595588426     
   8.5351381245644085     
   8.1037859245503778     
   8.1184787791929391     
   7.6796566052571196     
   7.6793862625993894     
   7.2475475510045264     
   7.2642555739009742     
   6.8240163691422051     
   6.8232502784194740     
   6.3913742236580484     
   6.4106558442100150     
   5.9686069646976421     
   5.9628349530350917     
   5.5316633961729895     
   5.5573195302848761     
   5.1132345086322131     
   5.1069863052318878     
   4.6772908211234343     
   4.7063150807084249     
   4.2585467409503730     
   4.2590853898458425     
   3.8231538498337159     
   3.8576970473933478     
   3.4051481106197228     
   3.4053224928597219     
   2.9671504581216284     
   3.0135203223030489     
   2.5532311258979474     
   2.5533784370118959     
   2.1111714909749018     
   2.1805782306017507     
   1.7066449117548159     
   1.7067518122881653     
   1.2552109877640245     
   1.3878177558506497     
  0.89352698245061246     
  0.89344594628061347     
  0.39926899999999999     
  0.65708766408468500     
  0.16292899999999999     
  0.27074999999999999     
  0.63442183268570562     
  0.65900064875998576     
   1.0737347520270029     
   1.1126843458884015     
   1.5197350514302297     
   1.5370160086890496     
   1.9556549061429196     
   1.9805169835595358     
   2.3953924412209453     
   2.4089515804925097     
   2.8295447532497264     
   2.8480148923248985     
   3.2663242854887193     
   3.2776007045869706     
   3.6993799568608012     
   3.7141404684748589     
   4.1344090648887288     
   4.1441485890133105     
   4.5667250963167518     
   4.5790310534095200     
   5.0005785622276759     
   5.0092132727268996     
   5.4323589244364285     
   5.4429122388298676     
   5.8653647495579211     
   5.8731629658306090     
   6.2967382140858321     
   6.3059736062365257     
   6.7291015398277230     
   6.7362464093297172     
   7.1601563679016502     
   7.1683612131984162     
   7.5920137420892662     
   7.5986368280263514     
   8.0228135056542538     
   8.0301878433653364     
   8.4542604093416927     
   8.4604603677685297     
   8.8848562918503511     
   8.8915460631391028     
   9.3159908482122855     
   9.3218252989833044     
   9.7461174680382641     
   9.7526085352849456     
   10.177271199115994     
   10.182775578669633     
   10.607272970631533     
   10.613431235199020     
   11.038329628346666     
   11.044807293146341     
   11.470214028930293     
   11.474440071591713     
   11.899721092104407     
   11.907301173663933     
   12.332009074827919     
   12.335877538777662     
   12.761517880392542     
   12.768708455589096     
   13.193936959194692     
   13.197476905257385     
   13.623731011264848     
   13.630467094758082     
   0.0000000000000000     
   0.0000000000000000     
   0.0000000000000000     
   0.0000000000000000     
   0.0000000000000000     
   0.0000000000000000     
   0.0000000000000000     
   0.0000000000000000     
   0.0000000000000000     
   13.279739646183767     
   0.0000000000000000     
   0.0000000000000000     
   0.0000000000000000     
   0.0000000000000000     
   0.0000000000000000     
   0.0000000000000000     
   0.0000000000000000     
   0.0000000000000000     
   0.0000000000000000     
   0.0000000000000000     
   0.0000000000000000     
   0.0000000000000000     
   0.0000000000000000     
   0.0000000000000000     
   0.0000000000000000     
   0.0000000000000000     
   0.0000000000000000     
   0.0000000000000000     
   0.0000000000000000     
   0.0000000000000000     
   0.0000000000000000     
   0.0000000000000000     
   0.0000000000000000     
   0.0000000000000000     
   0.0000000000000000     
   0.0000000000000000     
   0.0000000000000000     
   0.0000000000000000     
   0.0000000000000000     
   0.0000000000000000     
   0.0000000000000000     
   0.0000000000000000     
   0.0000000000000000     
   0.0000000000000000     
   0.0000000000000000     
   0.0000000000000000     
   0.0000000000000000     
   0.0000000000000000     
   0.0000000000000000     
   0.0000000000000000     
   0.0000000000000000     
   0.0000000000000000     
   0.0000000000000000     
   0.0000000000000000     
   0.0000000000000000     
   0.0000000000000000     
   0.0000000000000000     
   0.0000000000000000     
   0.0000000000000000     
   0.0000000000000000     
   0.0000000000000000     
   0.0000000000000000     
   0.0000000000000000     
   0.0000000000000000     
   13.415946844496842     
   13.339827999047023     
   12.950007859490533     
   13.034804839427091     
   12.566279692670198     
   12.487067513688796     
   12.100225608485625     
   12.190809784390561     
   11.721165607302051     
   11.635987340502028     
   11.252688898169993     
   11.350519570845861     
   10.877886370524573     
   10.785977264891082     
   10.407445296625102     
   10.512229059489647     
   10.037151501412556     
   9.9391426025490439     
   9.5642974843705169     
   9.6772858573280125     
   9.1995607719289811     
   9.0932774131114691     
   8.7238668775913126     
   8.8467633241654955     
   8.3660200274928336     
   8.2499338563514559     
   7.8872177098213001     
   8.0219176701736146     
   7.5380305389729321     
   7.4099816018236835     
   7.0557053618767114     
   7.2050160276806761     
   6.7176441966672238     
   6.5747234357592985     
   6.2314520527093347     
   6.3993394364043530     
   5.9083629812131022     
   5.7462791392704426     
   5.4180915000859411     
   5.6111212200239331     
   5.1169695722473234     
   4.9283686827457025     
   4.6228388064297068     
   4.8907513572152022     
   4.3990327845062263     
   4.1287178143527097     
   3.9079387128331269     
   4.2233662615852845     
   3.7423218694322498     
   3.4176897323927213     
   3.2653663385859879     
   3.6395960873037900     
   3.1869476801350376     
   2.7944238327901489     
   2.7494386099007473     
   3.1882120761863120     
   2.7977586657568425     
   2.3357429035358610     
   2.4476665657435492     
   2.9346680969516692     
   2.6539339356729545     
   2.1585786960866975     
   2.5086421113487614     
   2.9904636876003630     
   2.8952505758939129     
   2.4339102304268780     
   2.8617635247003506     
   3.2942630490755715     
   3.2904059135055554     
   2.8872342007974594     
   3.3542001830514829     
   3.8030342737379503     
   3.8352157319628599     
   3.4653954317168925     
   3.9520269852089362     
   4.3058995508168136     
   4.4385398367370010     
   4.1222034256340638     
   4.6171836843588965     
   4.9267880002785791     
   5.1113736340018763     
   4.8534865967297636     
   5.3486899575318931     
   5.6054178476080256     
   5.8430398346022940     
   5.6108106418926367     
   6.1045839498194070     
   6.3372193204824860     
   6.5977709494192966     
   6.3947644657098213     
   6.8854187346462412     
   7.0909690407428245     
   7.3759410140380064     
   7.1961459010415183     
   7.6831858777700379     
   7.8596874282716431     
   8.1625349365472459     
   8.0082014754617674     
   8.4914022602528032     
   8.6309283300487198     
   8.9722547129711572     
   8.8302528933740589     
   9.3103410311834693     
   0.0000000000000000     
   0.0000000000000000     
   9.4620689693168014     
   9.7922728376367445     
   9.6591965491299199     
   10.136213223922843     
   10.274845734442971     
   10.614269432971721     
   10.492157726299940     
   10.966185906318060     
   11.094237378886204     
   11.441511060187969     
   11.328644544174425     
   11.800079764476436     
   11.918842017311819     
   12.272931322264112     
   12.168790623562606     
   12.636603160055678     
   12.747666177887128     
   13.107826883098877     
   13.008524752890187     
   13.476003939416159     
   13.582794344524348     
   13.948179503292792     
   0.0000000000000000     
   0.0000000000000000     
   0.0000000000000000     
   0.0000000000000000     
   0.0000000000000000     
   0.0000000000000000     
   0.0000000000000000     
   0.0000000000000000     
   0.0000000000000000     
   0.0000000000000000     
   0.0000000000000000     
   0.0000000000000000     
   0.0000000000000000     
   0.0000000000000000     
   0.0000000000000000     
   0.0000000000000000     
   0.0000000000000000     
   0.0000000000000000     
   0.0000000000000000     
   0.0000000000000000     
   0.0000000000000000     
   0.0000000000000000     
   0.0000000000000000     
   0.0000000000000000     
   0.0000000000000000     
   0.0000000000000000     
   0.0000000000000000     
   0.0000000000000000     
   0.0000000000000000     
   0.0000000000000000     
   0.0000000000000000     
   0.0000000000000000     
   0.0000000000000000     
   0.0000000000000000     
   0.0000000000000000     
   0.0000000000000000     
   0.0000000000000000     
   0.0000000000000000     
   0.0000000000000000     
   0.0000000000000000     
   0.0000000000000000     
   0.0000000000000000     
   0.0000000000000000     
   0.0000000000000000     
   0.0000000000000000     
   13.381597074226338     
   13.466291895717548     
   12.998382552594364     
   12.918362820389975     
   12.531836642345802     
   12.622251163259458     
   12.151929339704752     
   12.066923623301518     
   11.683705468917148     
   11.779402156316868     
   11.308013404368385     
   11.216218654133057     
   10.836568190646272     
   10.940631802478414     
   10.466224885605723     
   10.366947342128739     
   9.9923115154591340     
   10.104102831839734     
   9.6268905444900827     
   9.5204084893533079     
   9.1511162886028821     
   9.2710133383166706     
   8.7914588949750350     
   8.6762891938855375     
   8.3129282044817021     
   8.4429066544054123     
   7.9612206601382285     
   7.8351657132810058     
   7.4791208555577695     
   7.6230577532505492     
   7.1369259933431790     
   6.9979725694243671     
   6.6511347558882425     
   6.8097438272748647     
   6.3201168062911552     
   6.1661026720853673     
   5.8312594072275061     
   6.0077716393131544     
   5.5165416525837720     
   5.3423120907348194     
   5.0236911639507120     
   5.2267416986772117     
   4.7314868150961402     
   4.5306375848926796     
   4.2354281799450062     
   4.5083727468146728     
   4.0165794730021060     
   3.7389274594860242     
   3.5244431991994354     
   3.8515435539131846     
   3.3731476401290155     
   3.0329871558410000     
   2.9015464038547729     
   3.2946130055966849     
   2.8578040507954823     
   2.4383157031790965     
   2.4427565531774440     
   2.9076207239456697     
   2.5562512373206387     
   2.0682604525234543     
   2.2660041739048653     
   2.7628966947671212     
   2.6138393728605118     
   2.1313786972140845     
   2.5334427015081444     
   2.9973155688203681     
   2.9569224347598571     
   2.5211962258433172     
   2.9762233719226723     
   3.3947951245099999     
   3.4383096705717398     
   3.0527964834619090     